61
 energy: -98.308096880128 gnorm: 0.000968223348 xtb: 6.5.1 (579679a)
C            6.02414140282170        0.72087870939509       -2.36807404328607
C            5.76138077497348        0.88674531463575       -0.87170072327036
C            6.59660180191870        2.02257935136088       -0.29376072742461
C            6.07057836415159       -0.43871949915942       -0.16344999509043
C            5.70062702676005       -0.50876833806860        1.33778268003024
O            5.30769559114466       -1.81503251044744        1.71319906606318
C            4.59301401174791        0.48131500868275        1.71199680457745
O            4.84818605415034        1.41601527396595        2.46155009950219
N            3.36731399646610        0.31095646487743        1.18418559498090
C            2.43042050630958        1.41750883958910        1.25203570131477
C            1.00563198453825        0.92432777895922        1.44677415422074
N            0.68509604204555        0.01005177754196        0.32893038238401
C           -0.70808880207289       -0.38100922706166        0.24921924304241
N           -0.92923774363722       -1.62283762260635        0.52873887683768
C           -2.17733727507423       -2.13194160810031        0.38227300445416
C           -2.22046580130303       -3.57441855388484        0.54744722463823
C           -1.19660281119886       -4.18573422248511        1.27730012294317
C           -1.07447118137053       -5.55468503388323        1.32381629626315
C           -1.97513140885658       -6.33540019099522        0.61505550302061
C           -3.01070285288385       -5.75540648128993       -0.08828087316850
C           -3.16187091015745       -4.37084420959226       -0.12591125637855
O           -4.14327535162807       -3.78489149936534       -0.83438625178201
N           -3.21685741822547       -1.41245815617776        0.04578760660593
C           -3.02717842573620       -0.11077961614008       -0.22026690621138
C           -4.13510741999255        0.67225248534364       -0.61150532175459
C           -3.96621842250695        1.98134469835635       -0.96192516203687
C           -2.68231715387467        2.55111081351484       -0.93576529644008
Br          -2.48380091391486        4.37912155815383       -1.47075555268302
C           -1.57712384033774        1.84623476657840       -0.54340537296409
C           -1.73371623933499        0.50080417928819       -0.16619722801026
C            1.57972353758991       -1.16426603709150        0.43527996458720
C            3.01480629395694       -0.71540736644878        0.22775637562249
H            5.88525819487965        1.66667280005133       -2.88676092367335
H            7.03864563120018        0.37711061920404       -2.53979667069801
H            5.33803681880484       -0.00433964738159       -2.80076130482111
H            4.70829109278526        1.14855039474169       -0.75122399535915
H            6.32584107593695        2.22132107279647        0.73966667153140
H            7.64140932044615        1.74711586682248       -0.32846221768914
H            6.45281584594186        2.93618309124995       -0.86571975457479
H            7.14108010152865       -0.63354107161433       -0.26296218491586
H            5.54487458002196       -1.24134567776740       -0.68283030263301
H            6.56234110450092       -0.19179314618072        1.94284036793386
H            6.06945581291223       -2.40452446016181        1.64247538893557
H            2.48070961776219        1.98548268997054        0.31394737834855
H            2.73846184912372        2.06330042571685        2.07609486613669
H            0.90342078903378        0.37255274301706        2.38477498303161
H            0.32095129475249        1.77136249862218        1.45012750145683
H            0.93510088542826        0.51552428636172       -0.60873750917418
H           -0.49423961013488       -3.55466268842009        1.79497030472634
H           -0.27722259364082       -6.01486489155693        1.88497161521068
H           -1.85163585669200       -7.40176408642236        0.60106719144360
H           -3.70536329238852       -6.37424101781172       -0.63619965124405
H           -4.69360405348152       -4.45437299005652       -1.26834373228737
H           -5.10240983570223        0.19852936951351       -0.63975224743294
H           -4.80457010023885        2.58492285283080       -1.27219257844838
H           -0.59908193390199        2.29857101170884       -0.57220931429255
H            1.30959150406282       -1.88757047198814       -0.33301138950768
H            1.44704070045846       -1.62166293530042        1.41696943466656
H            3.66539728792322       -1.57474787117432        0.37408035954861
H            3.11030867523606       -0.33005207054951       -0.79392831596353
Cl           1.30451553507879        1.29124836690692       -2.24690412088849
61
 energy: -98.283131251251 gnorm: 0.000771564319 xtb: 6.5.1 (579679a)
C            5.77115970192027        1.55933665635830        2.14544705625726
C            5.18930423891318        0.24690033622916        1.62865993486669
C            6.28641168044541       -0.64550893650738        1.05131421977495
C            4.04986625398143        0.48700710481972        0.62669774659430
C            4.43601572492640        1.27323562494909       -0.64156450233069
O            4.39380764900815        2.65537017771414       -0.37418687723746
C            3.52636311512632        0.82233596712859       -1.78817155218858
O            3.89035800772272       -0.07537820040918       -2.53956118006238
N            2.28593645112825        1.34626286231132       -1.89820713980420
C            1.43280820033218        0.91505672419679       -2.99671678875890
C           -0.02709257895256        0.84961768775847       -2.52494886785172
N           -0.03434365606013        0.50230756066669       -1.07986305665573
C           -1.31033960982204       -0.03852947188491       -0.56223352729657
N           -1.16465362734715       -1.24288215198792       -0.10761882173164
C           -2.23877764748836       -1.89874172877772        0.41074989648139
C           -2.00106998521157       -3.23453380668018        0.91841166383899
C           -0.72430523294334       -3.79953051209196        0.80285678103933
C           -0.45308308368949       -5.06222839906559        1.27722505026389
C           -1.46373083018844       -5.79544687435287        1.88735721648746
C           -2.72936890388493       -5.26159930879658        2.01357596930027
C           -3.02487116563447       -3.98394400028263        1.53685331785304
O           -4.25089906504109       -3.46126327662458        1.66139200617109
N           -3.43335471570050       -1.35744974170163        0.45369529813272
C           -3.61114316954745       -0.11971505212256       -0.00670296252152
C           -4.90729167713589        0.44276292439876        0.05508914361344
C           -5.13625030885683        1.70970009062834       -0.39534156992191
C           -4.07349993826042        2.46361937361615       -0.92615849580825
Br          -4.42455970371437        4.24630847898460       -1.54917779218795
C           -2.79953987423724        1.96880097053105       -1.01285680379686
C           -2.53537904613422        0.66147825015459       -0.55810743041561
C            0.50722618299196        1.63241723753195       -0.26679822243664
C            1.65149196513632        2.31790571628334       -1.03956534319085
H            6.54511002413840        1.36396474321400        2.88378276386212
H            6.20699276856224        2.13198345248761        1.33017335150582
H            4.99678604922857        2.16923232284471        2.60432845483931
H            4.74182385153742       -0.28564168782436        2.47731207994445
H            5.86377430540640       -1.55391386234082        0.62590589531562
H            6.84039270868910       -0.12958451139562        0.26898754653911
H            6.98984073815832       -0.92280408135656        1.83235179638894
H            3.26653981002563        1.05252144337723        1.13181609808735
H            3.65895014642745       -0.48464549515984        0.31736506473266
H            5.44398144445243        0.98222627263640       -0.96953054704429
H            4.71009353398122        3.12979464682098       -1.16572132275586
H            1.80530959709225       -0.05902285943950       -3.32497500809425
H            1.52520710155597        1.60959915430351       -3.83832121271981
H           -0.52336025706600        1.80866570391010       -2.66461199089832
H           -0.56853865732644        0.08651929515650       -3.08556683272460
H            0.61933998747690       -0.29460133307925       -0.97155979212225
H            0.05006192219075       -3.22027386717136        0.32781724425426
H            0.53641819979065       -5.47918138745469        1.17689846322022
H           -1.26073027159847       -6.78560046117995        2.26483737999288
H           -3.51058567368424       -5.83690612039759        2.48954186177851
H           -4.84660661919205       -4.08262309212193        2.10811512671828
H           -5.69399011996834       -0.16445759820641        0.47120359876500
H           -6.12211258409149        2.14423114869115       -0.34860999748364
H           -2.02633851265281        2.59286106760439       -1.42689631735762
H            0.86332748484629        1.22203532329158        0.67898108377393
H           -0.28815417711139        2.34749472966970       -0.05982357109150
H            1.27597212325293        3.13390999754834       -1.66340566199007
H            2.38344636674531        2.74166677482012       -0.35306980232789
Cl           5.28626444186334        3.67325137247049       -3.15227818559833
61
 energy: -98.314538594574 gnorm: 0.001165683546 xtb: 6.5.1 (579679a)
C            5.27306408139552        2.62618055661548        0.67408839525854
C            6.19868145752536        1.44956723354069        0.36417544153706
C            6.60992201000629        1.47755085718587       -1.10390443193852
C            5.62730679123654        0.08743621978932        0.79358804034874
C            4.66497429674124       -0.65370632621155       -0.16668590686472
O            5.39450222925779       -1.40780706544204       -1.10566147669268
C            3.68580891559460        0.23614633246665       -0.93329879822710
O            3.79397055984281        0.32176120222552       -2.15390299563904
N            2.73456759148120        0.90378461557967       -0.26274433353323
C            2.31319198763659        0.70506328255440        1.10195057101575
C            0.96599216325038       -0.01403148081753        1.10071238322148
N           -0.02939275555094        0.79563266619406        0.35957126333652
C           -1.32807253737920        0.13935388429241        0.30550841256976
N           -1.29929321354855       -1.14568342966677        0.45474911877575
C           -2.44746424658391       -1.85872866223986        0.30983094661069
C           -2.29510185409587       -3.29919948536705        0.42611193590416
C           -1.12264266412349       -3.81491491296817        0.98908874880353
C           -0.90928770162774       -5.17173749601874        1.08433913257887
C           -1.87318456423609       -6.04841630811806        0.60437335717692
C           -3.03724898924131       -5.56292117459464        0.04412496868374
C           -3.27412712588180       -4.19186544712625       -0.05157500371055
O           -4.39403055160539       -3.71276911347432       -0.61450908799010
N           -3.60634024558754       -1.30863260176749        0.04500517235706
C           -3.67142854528369        0.02198686832863       -0.09408518254044
C           -4.91672102397181        0.62289164653591       -0.38360182326273
C           -5.00839519422226        1.97510773381520       -0.54902267303344
C           -3.85961428621420        2.77537386313357       -0.42153631729040
Br          -4.03735770609060        4.67025840440471       -0.64662251524799
C           -2.62812295539390        2.24741415826079       -0.14470753734173
C           -2.51399635017428        0.85531815756182        0.02265122160255
C            0.43816608444900        1.04388363481862       -1.02773286845879
C            1.79579925072560        1.73220621355929       -0.99016035242410
H            4.43181538426032        2.65979157226158       -0.01066691903567
H            4.89742012606285        2.57237775896851        1.69334849367684
H            5.82338609908294        3.55896544544665        0.56758109403815
H            7.10233803909798        1.59063790785162        0.96913019204326
H            7.07772668071981        2.42881403461192       -1.33180680883004
H            7.30149782785892        0.66952102638405       -1.32271831916514
H            5.75106538114822        1.38233320907978       -1.75964243883092
H            5.15539254841319        0.20729292531603        1.76919286945193
H            6.46256533449624       -0.60602093448826        0.91865314915788
H            4.08966953959914       -1.37858212094737        0.42869295890604
H            5.22514617654141       -1.00966504161859       -1.97892989242257
H            2.19739861865925        1.68304111453340        1.57854567055928
H            3.03817951616361        0.12041828222016        1.65963802196217
H            1.04741271847747       -0.98910542312004        0.61550310471435
H            0.60775921108731       -0.14310440097060        2.12154770420821
H           -0.08602662183816        1.75386321474325        0.87283976119983
H           -0.38787300277646       -3.11798795116973        1.35652245219825
H           -0.00001215350134       -5.55002725655817        1.52467179486735
H           -1.71227787414173       -7.11313318815957        0.66519280873425
H           -3.78116362369816       -6.25014801167847       -0.33060096024567
H           -4.95867164315418       -4.43886192214498       -0.92066763073939
H           -5.77823265790046       -0.01816611053043       -0.46960574249886
H           -5.95363884198525        2.44385222621142       -0.77321087442674
H           -1.76980116402942        2.88699034927705       -0.01391750273570
H           -0.28553562589979        1.67240006798445       -1.54573800017433
H            0.51733847625859        0.08033000856204       -1.53957760588490
H            2.16973658466802        1.87570756524899       -2.00510972308425
H            1.70498677293733        2.69682229886242       -0.48319392257335
Cl          -0.02635534232064        3.36613411035465        1.80472568203392
61
 energy: -98.300002729876 gnorm: 0.000491904758 xtb: 6.5.1 (579679a)
C            6.25612679480325       -1.43878629366346       -1.22950935531766
C            5.37898271624480       -0.40245033229493       -0.52615127042121
C            4.34162464219919        0.13835349248706       -1.50905329315430
C            6.25059238732309        0.72516386898936        0.04561084069899
C            5.72153409874732        1.39493205272782        1.33187239401122
O            5.72084287706558        0.44402264418361        2.37335356826564
C            4.40211845446657        2.12576480528882        1.06268489035956
O            4.45165394768546        3.20070928155935        0.46982618713875
N            3.21450816552723        1.62986365166709        1.46230470373545
C            2.92850029226396        0.34933747024763        2.07717284084440
C            1.75881417546564       -0.29909471328571        1.35463065890284
N            0.51281343540639        0.48174860079651        1.60762972035779
C           -0.54711998009316        0.05756076562094        0.71372339242346
N           -0.79728456917051       -1.21315833819201        0.87735187094911
C           -1.81160197678611       -1.81542048429194        0.21779705995234
C           -1.93934109244533       -3.25833463970810        0.31313122627700
C           -2.86078500802161       -3.90105100940229       -0.52533003312311
C           -2.98304163904174       -5.27035882516561       -0.53256399077189
C           -2.17977187740994       -6.03365505508652        0.30840371897043
C           -1.28081083786523       -5.42610013650568        1.15622638618431
C           -1.14509647005840       -4.03695005114624        1.17862573845828
O           -0.25117889989339       -3.52021233347909        2.03765392542150
N           -2.67501730115521       -1.13815764318326       -0.50831428641765
C           -2.43741771841978        0.15540591075800       -0.73417091091897
C           -3.34275622535601        0.85006637840184       -1.56999864214548
C           -3.10004688416258        2.13838822137920       -1.94304709231256
C           -1.92249415890038        2.76507686682191       -1.50384470504385
Br          -1.54522141997237        4.54148087223799       -2.11364280223953
C           -1.03183858394967        2.15136562499371       -0.66481802853156
C           -1.28732891049124        0.84146760906322       -0.20762300572321
C            0.81219362923287        1.91144653548427        1.85121884661977
C            2.02770953325186        2.38580562821942        1.07191825761648
H            5.63891662731603       -2.22013098924872       -1.66686423215946
H            6.83422596593076       -0.97224229609101       -2.02431212753174
H            6.94368793960442       -1.90044246435366       -0.52508705052967
H            4.87335037738120       -0.90620316933299        0.30146272672372
H            3.63919735775517       -0.64259403099266       -1.79242867105036
H            3.79440452943855        0.97521320170958       -1.08522736166918
H            4.83666401904235        0.49266531024163       -2.41134098653217
H            6.39140915135152        1.50389333241002       -0.70528901398900
H            7.22923195867279        0.31852115406500        0.30478841164848
H            6.43024721657055        2.20548129206847        1.56333500848509
H            5.75713218814728        0.88831909657138        3.22766429022241
H            2.67601192187522        0.47573067171712        3.13539081713741
H            3.80263613443554       -0.29498642242332        2.01442694657720
H            1.95187125104940       -0.32494237824682        0.27912219390777
H            1.61728644449377       -1.31610919500786        1.71751846811468
H            0.13759660077189        0.14174995666753        2.62039208047524
H           -3.46150981272993       -3.28409051868631       -1.17395805323057
H           -3.69061232603122       -5.75057460185511       -1.18954350506396
H           -2.25548393809964       -7.10790614924707        0.30020851242349
H           -0.65743359589967       -6.00211430636903        1.82197608519530
H           -0.29752824874778       -2.54263434688066        1.99181663040196
H           -4.20855787110889        0.31243349840373       -1.91988212453883
H           -3.78120451534796        2.66991839906316       -2.58838447190971
H           -0.13034748475476        2.67499723649332       -0.40434890068375
H            1.00122505061283        2.01312508071280        2.92252083461195
H           -0.06774963011560        2.51187459058853        1.63195675784761
H            1.88708504153563        2.28137261935831       -0.01131366103090
H            2.21222286708989        3.44531243123254        1.27176996182796
Cl          -0.44941330553250       -0.14457023106847        4.23695862137152
61
 energy: -98.304140712009 gnorm: 0.000831719382 xtb: 6.5.1 (579679a)
C            5.44002636220144       -1.48963335682294       -2.11929998931043
C            6.15829634843363       -0.88937489345194       -0.91185300270834
C            6.29470987543896       -1.92907937068959        0.19685393847525
C            5.46147760115542        0.39231818278323       -0.42235330222918
C            4.22150931186430        0.16793335030530        0.46060074456918
O            3.30610312243336       -0.73225327108134       -0.11956574783286
C            3.58207879883708        1.51781351901110        0.79265757271726
O            3.87866282294427        2.10959007210626        1.82285641156978
N            2.70548364751888        2.04343463313810       -0.09257402844886
C            2.38081304773513        1.55840128057759       -1.41283184131420
C            0.95323491439736        0.98186697952451       -1.43035468464833
N            0.26036017935569        1.34402314562641       -0.17121665023702
C           -1.01909971417478        0.64451158737092       -0.06447241846895
N           -0.86486081447191       -0.62060458990233       -0.30248236835808
C           -1.84767513519221       -1.49850666720997       -0.04712097901346
C           -1.62356913666751       -2.89133028765027       -0.39520773681704
C           -2.44989437266063       -3.87088377793604        0.16392358120900
C           -2.25773636618380       -5.20798549429508       -0.10507759976819
C           -1.22627961886563       -5.59307373872597       -0.95184015543431
C           -0.40867542557106       -4.64197021527160       -1.52743069869677
C           -0.58956331051119       -3.28393520918594       -1.26745005069764
O            0.18456887337479       -2.35858148539818       -1.86262796294229
N           -2.96402813635953       -1.14920498847701        0.55958910096022
C           -3.19779089281671        0.15439987131552        0.73874449850874
C           -4.43880090799664        0.52802658563732        1.30504335872318
C           -4.78823201061351        1.84125019380440        1.41989726605087
C           -3.90727507118819        2.82564418391278        0.94703986400384
Br          -4.44697509139963        4.65764373176884        1.03469892797901
C           -2.68089305152271        2.52289695286244        0.41902074398220
C           -2.26468184873108        1.17856730299975        0.35041740573670
C            0.37404330421740        2.78821579747505        0.07367312529953
C            1.86216387189949        3.14756951690354        0.30552523160751
H            5.96562700146823       -2.37851811880315       -2.46032957772322
H            4.42694403921306       -1.76366578489253       -1.84399403360785
H            5.40718705726855       -0.77452926831058       -2.93807323917354
H            7.16548098343597       -0.59216614519146       -1.22706089869422
H            6.79537603530784       -1.50727736753783        1.06611565738900
H            5.31566196478614       -2.29094161651534        0.49915594496793
H            6.87271155310332       -2.77836768677167       -0.15663570966779
H            5.19441195849893        0.99572542232357       -1.29059534759779
H            6.15658489012625        0.97676697544275        0.18501319875987
H            4.56034049609970       -0.22158981836724        1.43396085220024
H            2.56730074626652       -0.83816584927607        0.50045414843657
H            3.08437782577103        0.79019918426435       -1.71868467753151
H            2.45797115426948        2.40965516310252       -2.09718811607517
H            0.37701668894630        1.38189963646325       -2.26753224477545
H            0.96945280795711       -0.10662683801429       -1.48945941655709
H            0.80134353731522        0.85528985009766        0.63919542502312
H           -3.23702980163645       -3.54305723547463        0.82387781242276
H           -2.90031528061010       -5.94982208877159        0.34215014368796
H           -1.06279185193256       -6.63821870600382       -1.16558620674820
H            0.38828223924210       -4.94721898898217       -2.19097882125913
H            0.84228875832519       -2.79114169290670       -2.43043276267786
H           -5.10466447816938       -0.26244680835835        1.60992931254822
H           -5.73795640909773        2.12899733121604        1.84252042531959
H           -2.07483745634438        3.32089164063179        0.03009512014877
H           -0.18926894931049        3.04659278389988        0.96880256247301
H           -0.01622575773629        3.32540851346033       -0.79398217524839
H            2.12537926223975        4.04474182140801       -0.26296700252977
H            2.06350513897584        3.33408734437678        1.36187666352944
Cl           1.26532039898983       -0.01323004537153        2.21418131817238
61
 energy: -98.321158983429 gnorm: 0.000928877803 xtb: 6.5.1 (579679a)
C            4.95515130816776        3.91588361611859        0.87171449880416
C            5.20471021316142        2.63145006253872        1.66144572278609
C            6.03100904633875        1.64480961806307        0.83880087470003
C            3.89988891618022        2.00927926210936        2.17507424551283
C            2.95240890111792        1.48051467991095        1.09050467651467
O            1.62277774888327        1.36860595968737        1.58312811884200
C            3.36531514988650        0.06903502536289        0.65814518428380
O            3.43283024679212       -0.79508410934653        1.52613354175994
N            3.63019223064729       -0.21543860773738       -0.63586040533654
C            3.28218989053612        0.56979297814680       -1.80080757762738
C            2.08441441147149       -0.13254461436617       -2.49956408725952
N            1.44316007693270       -1.02585901177140       -1.56525764195429
C            0.29395996357924       -0.82764767772735       -0.89561922548732
N           -0.18431148324948       -1.90107461534839       -0.27228027895152
C           -1.40291609133116       -1.87903316109005        0.29315623456957
C           -1.84007605545681       -3.07398810577026        1.01489637979448
C           -2.95505534008971       -2.98005842273496        1.85068078225276
C           -3.39494653778162       -4.06451256901175        2.57671723736035
C           -2.72143073271578       -5.27449755669184        2.47312168353164
C           -1.62790433143682       -5.39725735911338        1.64346657456437
C           -1.17005853506581       -4.30540270652279        0.90704992414686
O           -0.10444369923462       -4.48703683891134        0.10498557515376
N           -2.24116289037924       -0.86919384937288        0.21612791860522
C           -1.77545406738169        0.27706090126376       -0.31656315456446
C           -2.63657783813513        1.39407386228522       -0.30636096998900
C           -2.19148012319218        2.62585426438978       -0.69690963668732
C           -0.85805068407400        2.75954639387239       -1.08730080982451
Br          -0.18520154451716        4.49881398781424       -1.51406654390856
C           -0.00486598721887        1.68907529854118       -1.16650270266770
C           -0.45540391305831        0.40513796926140       -0.83608626563618
C            2.30076134972464       -2.15481479861331       -1.23997658336938
C            3.73164977578579       -1.62068282215192       -0.99784750059880
H            5.90150552557960        4.38803503215036        0.62543021394151
H            4.43217703733038        3.71613984616604       -0.05973167890443
H            4.36259435165396        4.61636583232657        1.45486876836997
H            5.78303554889259        2.89570893214692        2.55461868587068
H            5.57430569188792        1.47372728353154       -0.13161021067736
H            7.03058710766838        2.03943859815063        0.67833281658626
H            6.11640813379642        0.69113293088112        1.35471634207076
H            3.34868805810559        2.76267450552080        2.74393917895143
H            4.13225316600556        1.17959975143283        2.84960781645144
H            2.88335978726107        2.19857942643986        0.27643953669598
H            1.63705817202429        0.73752810390146        2.31615332914791
H            4.14495163074728        0.59398252891319       -2.47325624943439
H            3.04922828930906        1.59386704727883       -1.52136376570564
H            1.36940176779676        0.57155839549380       -2.91702769910428
H            2.45321444737194       -0.75696239722808       -3.31878323917853
H           -1.01176326338555       -1.51520899370587       -4.59931814491847
H           -3.45539500408927       -2.02610807598748        1.91465905533345
H           -4.25322790789170       -3.97246826029460        3.22405132065788
H           -3.04991577010386       -6.12451454935841        3.04646136760610
H           -1.09716612657443       -6.33153432972032        1.54724481206521
H            0.09813038695285       -3.61200055959089       -0.30325465254734
H           -3.64312889815308        1.24685492912552        0.05220994842462
H           -2.84349307452090        3.48551229048692       -0.67623083593326
H            1.01829318437175        1.87402055170399       -1.43166891752896
H            2.28738793665811       -2.88821786622988       -2.05021539812821
H            1.92811970782709       -2.61913034033718       -0.32884321313850
H            4.20142243634333       -2.16304981409751       -0.17827550976210
H            4.35416534563081       -1.69749844600402       -1.88947058301495
Cl          -1.57264903403263       -1.28116113009239       -3.47447437099370
61
 energy: -98.288691754387 gnorm: 0.001011493760 xtb: 6.5.1 (579679a)
C            5.35187857635511        1.07014042608772       -2.17903859599783
C            6.01858675028179        1.16022395347220       -0.80752369444093
C            5.95357819703013       -0.17454478733737       -0.06767553178814
C            5.50938195373230        2.33355654146717        0.04445434910012
C            4.02221482140905        2.42810509287591        0.44512438251645
O            3.63450864533364        1.36606524327375        1.28386652734654
C            3.10889874409208        2.72331736900968       -0.74882182065876
O            3.16170118502140        3.84489624724692       -1.24235196758725
N            2.25433681434011        1.80020089408368       -1.24478067766825
C            1.21395157556875        2.22753157862767       -2.16162800818440
C           -0.15309342616440        2.03643717190821       -1.50171785915836
N           -0.30347969468388        0.59455254291547       -1.19290127907774