54
 energy: -75.385925082053 gnorm: 0.000409972256 xtb: 6.5.1 (579679a)
C           -3.17629445690472        2.91997059240392       -0.38436375093020
C           -2.25993867170872        2.98902682569547        0.83252275300909
C           -0.81621648496019        2.63872535189869        0.47788236055341
C            0.11770762531030        2.77819046981622        1.68027160325807
C            1.54088302815502        2.28440097582091        1.40816056053664
C            2.29556461863169        3.15948236304121        0.40476334765907
C            3.67398470309853        2.60409679015332        0.00844593134671
C            3.68764743675686        1.92986044529024       -1.36584196489313
C            2.86246907379790        0.63719920350742       -1.40189159070807
C            3.60334077738074       -0.48728514385973       -0.77925191303524
O            4.77869902154663       -0.62778522373855       -0.72165005276597
C            2.66921301679968       -1.68396109158935       -0.15965763780734
C            3.20588407836957       -1.87080597067836        1.19068953893070
C            2.45350391604725       -1.70950678115063        2.31718159795937
C            1.08612710936201       -1.41752903949469        2.23353826538662
C            0.47212429074869       -1.32030722627994        0.99305846382699
C            1.22448213537676       -1.49190562860575       -0.19861644844154
S            0.25538458219786       -1.45342615447971       -1.61175634339823
C           -1.17722832914525       -1.17084721359496       -0.66677632057704
C           -0.90601761757188       -1.12254128849998        0.68593796293720
S           -2.32087095344091       -0.84862440600925        1.64479069952130
C           -3.29768582858791       -0.80047151827130        0.19355447699207
C           -4.66847766108731       -0.59907149496257        0.14808954111234
C           -5.28858023714633       -0.58484577892923       -1.08535691056877
C           -4.55775297343184       -0.76744898950638       -2.26055751093585
C           -3.19584715487174       -0.96888601092486       -2.22470576261999
C           -2.54759740525008       -0.98869826712389       -0.98896007251009
H           -4.20194987424858        3.15081190575815       -0.10538155266103
H           -3.15908759131816        1.92589309921270       -0.82587046327044
H           -2.86198340488691        3.63553863379401       -1.14130126783072
H           -2.29434288986807        3.99762573726727        1.25106621862616
H           -2.62418628869226        2.30413224505984        1.60196191863144
H           -0.48995674926571        3.29844932190955       -0.32745893438834
H           -0.78345472808898        1.61233889685495        0.10601413376424
H            0.14998808604970        3.82518352261864        1.99018142981325
H           -0.29917030446403        2.20596195742714        2.51271979166753
H            2.09491098415164        2.27919389069949        2.34985106536199
H            1.48911760068452        1.25394333554958        1.05644362053939
H            1.69536329292665        3.29334604871475       -0.49510520988238
H            2.41905065630552        4.14751810350819        0.85243226734449
H            4.02712831389259        1.90406332540143        0.76800755252058
H            4.39185290161024        3.42518575050851       -0.02582968801629
H            3.27950346918604        2.62132410970666       -2.10384415406617
H            4.71783988240843        1.70938492636624       -1.64905210098681
H            2.69707057928064        0.34175152251235       -2.44354147096276
H            1.89127454486272        0.79954982659479       -0.94258973695810
H            2.98992953437431       -2.48326352960211       -0.83915826436598
H            4.26358742119026       -2.07859572471792        1.26066920265909
H            2.90772354141868       -1.82094479345358        3.28871104388696
H            0.49729357866249       -1.28568146594635        3.12819499837668
H           -5.23113106953890       -0.45506037616530        1.05704789196266
H           -6.35462793784849       -0.42861489927879       -1.14124995333917
H           -5.07107120908332       -0.74880319891459       -3.20932808571137
H           -2.62924028156669       -1.10905425051647       -3.13206553633595
54
 energy: -75.384880825978 gnorm: 0.000753496049 xtb: 6.5.1 (579679a)
C            0.44218412945275        6.18716415829781        3.70777866790110
C            0.06505594746715        4.72759594050921        3.47798350121258
C            0.88844429984354        4.06119772279802        2.37501171943923
C            0.63243748842281        4.65685073116264        0.99031255121387
C            1.14552779030179        3.76783311033662       -0.14409193215973
C            2.66740441093994        3.62088309227082       -0.15093670957194
C            3.19467179016982        2.92406268164832       -1.40768138807691
C            2.79440267591772        1.45196800115264       -1.52609037015213
C            3.62574952856376        0.56355899018941       -0.57580145480918
C            3.02130441078543       -0.79215915552786       -0.59813330290796
O            2.91572609274147       -1.50359341060033       -1.54498612421751
C            2.33457428014498       -1.28687649560646        0.78268084116295
C            2.53982992129882       -0.41494615395108        1.94153132439638
C            1.52285508219119        0.27479614656989        2.52840181667149
C            0.19946555139793        0.15930536916813        2.06509060885363
C           -0.09935203990384       -0.71128245511809        1.03243738223574
C            0.92896049002863       -1.48494128711143        0.43034531547320
S            0.38427531386002       -2.52039449905622       -0.80683425461395
C           -1.25606727070840       -1.96603670299837       -0.57524445035128
C           -1.35309453483810       -1.02077751490235        0.42488668195762
S           -2.97539681274316       -0.47094325425425        0.67448384147941
C           -3.53640584374768       -1.54129565810837       -0.59098521470432
C           -4.85017994421326       -1.67754697742048       -1.01210100897696
C           -5.12327948395518       -2.57320736130345       -2.02661552872135
C           -4.10518590954557       -3.32354528795038       -2.61774294294652
C           -2.79752610725248       -3.19298102533255       -2.20623057239594
C           -2.49665616368637       -2.29434461119869       -1.18156297445644
H           -0.12193958873960        6.59616435815217        4.54359363161235
H            0.22563528003093        6.79037538288060        2.82962922413988
H            1.50238223524438        6.27878134624260        3.93542802653046
H            0.21325200980261        4.17838819747215        4.41180667204510
H           -0.99713345417856        4.66890777307951        3.22568048638974
H            0.62954156675599        3.00118260353038        2.34528731783913
H            1.94695270294249        4.14864523661203        2.62485781451092
H           -0.44428720146967        4.79487457568567        0.86037444932369
H            1.09983614378304        5.64023787231551        0.91506854731844
H            0.67096344731145        2.78845962843499       -0.05618540919090
H            0.83000395636018        4.20451872924215       -1.09515714701112
H            3.11041259053704        4.61848105281315       -0.10831200177228
H            2.98902098161800        3.08455008147754        0.74120980279065
H            4.28284180520423        3.00412037969030       -1.43409855213013
H            2.80814600275488        3.45075999058542       -2.28282524371248
H            1.73364760023039        1.34789047166467       -1.29793287571429
H            2.94839029638067        1.11199437360087       -2.55059291392561
H            3.64035187610271        0.99316313878312        0.42113439633164
H            4.64312115170171        0.49717469878077       -0.96754212078259
H            2.87666259474970       -2.23134290205709        0.91766500319783
H            3.54472049269192       -0.33804906856518        2.32861938134950
H            1.72205545683858        0.91423074688574        3.37380105132558
H           -0.59393171097786        0.73081237356992        2.52268974889285
H           -5.63550983820833       -1.09704135403998       -0.55390165121847
H           -6.13969624444147       -2.69529003408216       -2.36732620143343
H           -4.35055989930051       -4.01491849632767       -3.40890825640058
H           -2.00869784054172       -3.77145572928558       -2.66179640224665
54
 energy: -75.387504929753 gnorm: 0.000636550376 xtb: 6.5.1 (579679a)
C            1.12602653050365        3.95305417905441        4.51728084239947
C            0.95115617774292        5.41746948858732        4.12731317851562
C            0.88687889304097        5.63148550357222        2.61318190474622
C            2.23818619685940        5.45264943263772        1.92104293345100
C            2.13545726904561        5.56340743516554        0.39695447882943
C            1.58285770957659        4.29778383503555       -0.26499870249817
C            2.64334616871443        3.20572753366920       -0.41116771664370
C            2.00841723878782        1.88723138508101       -0.84822351339956
C            3.08115224459553        0.82420526412123       -1.15766049586480
C            2.38584252371002       -0.46036824839346       -1.41125986683939
O            2.08263658577030       -0.90821332283764       -2.47290975822611
C            1.94196276941141       -1.27856001840528       -0.10019476381989
C            2.02432705963032       -0.57361346478356        1.18448559529492
C            0.94869606072229       -0.40244352505503        2.00255711843304
C           -0.32228404223758       -0.89369086446598        1.65624984591531
C           -0.48996818370757       -1.59851913884997        0.47870733636365
C            0.61823971721179       -1.83762732086677       -0.37668696651718
S            0.22372066110838       -2.67386517267850       -1.80362887704397
C           -1.45074100634094       -2.75991303438033       -1.31598674841213
C           -1.67008315024145       -2.16087810306611       -0.09344535225773
S           -3.32635626596892       -2.23276997148104        0.40375304561004
C           -3.73510917343679       -3.07840123990765       -1.07272916016823
C           -5.00352958966797       -3.49950240507276       -1.43922348369974
C           -5.15396983910807       -4.14258210950094       -2.65126538511872
C           -4.06061668074350       -4.37066962772751       -3.48813489852442
C           -2.79678093083312       -3.95786400641399       -3.12974915815753
C           -2.62004232631871       -3.30034113859988       -1.91161494405805
H            2.07050137149677        3.56188111951870        4.14913252296378
H            0.31186312292928        3.35822009977695        4.10901358054254
H            1.11648212034546        3.85011525751350        5.60043498431414
H            0.02453304403269        5.78981903315417        4.57241303441706
H            1.77148704586712        6.00888022477930        4.54181138021612
H            0.52733005185542        6.64486342938071        2.41608631314980
H            0.15530977644354        4.94001224995477        2.19189287227827
H            2.91971419042078        6.22284472537050        2.29005492396760
H            2.66304700403917        4.48576691357279        2.18739843387863
H            1.49115146504252        6.41110129348251        0.15203367914459
H            3.12285736884131        5.77729149318250       -0.01862219603339
H            0.74646752729173        3.91963356496391        0.32411947911030
H            1.19763687321625        4.55173597910588       -1.25476220353525
H            3.15692049403829        3.06418191231166        0.53975158257192
H            3.38374292337211        3.52482041215491       -1.14621810588580
H            1.35404136367335        1.53228511893942       -0.05063885778692
H            1.40102298756700        2.05174462605098       -1.73944045018481
H            3.77857136369804        0.75326583410097       -0.32645759263078
H            3.61913453362408        1.10844495134476       -2.06327955986872
H            2.73355335477144       -2.04354332533687       -0.14038072506141
H            2.99107338275067       -0.20907203590078        1.49431704299685
H            1.06465752550842        0.11824539038706        2.93971923386390
H           -1.17068599136751       -0.72209548234185        2.30093163354653
H           -5.84861711819895       -3.32430522388059       -0.79232574566057
H           -6.13432747226630       -4.47017036132457       -2.95643875840116
H           -4.21252240609069       -4.87619845335809       -4.42906228553985
H           -1.94909467345852       -4.13081154874450       -3.77442456402832
54
 energy: -75.387297273885 gnorm: 0.000670855700 xtb: 6.5.1 (579679a)
C           -0.08950751792522        6.45505671047523        1.63104796716111
C            0.95802395700445        6.42630149971355        2.73955655552960
C            2.17229593066557        5.55878724181974        2.40252786779948
C            1.84736165277750        4.06698486786078        2.37073171506809
C            3.08197950236347        3.18290456647144        2.18353590389081
C            3.83131993572796        3.38397839578673        0.86271144142643
C            2.97817482150946        3.24137920127914       -0.39931113028628
C            2.27212841385240        1.89416444328001       -0.55927657107457
C            3.27184576092516        0.74385551477079       -0.79378506161779
C            2.49921223765996       -0.49167178152137       -1.05945178771881
O            2.22424547951268       -0.94375618340152       -2.12696518581929
C            1.93061184569466       -1.25555399671071        0.23986657995599
C            1.98106096044461       -0.52865675078153        1.51256106599288
C            0.86818980368001       -0.25575856929603        2.24925536027654
C           -0.40897941711063       -0.66751613608840        1.83012292181944
C           -0.54811974165650       -1.40490800359498        0.66902126810854
C            0.59480117679392       -1.74180914441558       -0.10391274869538
S            0.23991956566377       -2.60529969793681       -1.52476244105277
C           -1.46256379051036       -2.58498642215677       -1.13776803600104
C           -1.72199429366517       -1.92330868625830        0.04405227655762
S           -3.40579848877193       -1.90053484692079        0.44565137461524
C           -3.76905260854934       -2.79943040104272       -1.01161377224915
C           -5.03128600671849       -3.19516415571763       -1.42619241386578
C           -5.14152244568056       -3.89632980063451       -2.61055837724621
C           -4.01390647353464       -4.20235131675201       -3.37431790993979
C           -2.75656622211290       -3.81369432739836       -2.96879426922146
C           -2.61983368551917       -3.10326440174123       -1.77539100579608
H           -0.52596970289221        5.47222376514227        1.47574864529672
H            0.35497961654613        6.79121705895495        0.69643365093071
H           -0.89192466710571        7.14269351687203        1.89023114865090
H            1.30045640834304        7.44763933050240        2.92100432757096
H            0.49869697684252        6.06740467537880        3.66415595154691
H            2.94590730386094        5.73607301251495        3.15500394810104
H            2.57142007053075        5.87875732334479        1.43811777927265
H            1.37592714887883        3.80024955492054        3.32059192876849
H            1.12604473733450        3.86772883063297        1.57868540348137
H            3.78123275528424        3.38348909387586        2.99886060545763
H            2.77088251567115        2.14241146268904        2.27211468282092
H            4.27219125692628        4.38219397954290        0.85386642266220
H            4.66303244107484        2.67761341820116        0.82776197991887
H            3.61651060956439        3.41792120561527       -1.26737601191703
H            2.21429981218860        4.01966793163310       -0.40141739171407
H            1.67285521569151        1.68817387977602        0.32662598000003
H            1.60200691252236        1.95613638719511       -1.41886068796588
H            3.92418571229858        0.63871317016414        0.06890275160347
H            3.86700646057658        0.96662118049423       -1.68130354297146
H            2.67709745218403       -2.06502422153112        0.25643872908207
H            2.95199481384916       -0.23327217258976        1.87860740661748
H            0.95627653782366        0.28381545998932        3.17906138082599
H           -1.28290141787696       -0.41436262703750        2.41029141600433
H           -5.90209940499720       -2.95788008464659       -0.83546946389536
H           -6.11542058347766       -4.21194735439313       -2.95080548005734
H           -4.13342690566562       -4.75171351717435       -4.29505609917742
H           -1.88274745174470       -4.04826267053180       -3.55668037141376
54
 energy: -75.386380889989 gnorm: 0.000456252338 xtb: 6.5.1 (579679a)
C           -0.36999547649102        6.23104712218175        1.39412213459741
C            0.55828707666080        6.01942847259752        0.20279544058933
C            0.30242953276842        4.67461095505629       -0.47495304751498
C            1.15204766829528        4.44948954324892       -1.72761243958838
C            2.65134161126478        4.27619153432859       -1.46839458761525
C            2.98606948672189        3.02758630939005       -0.63362138102757
C            3.58112883676863        3.37963161627451        0.73052030836830
C            3.91882395132031        2.15979450452625        1.59076855144101
C            2.71498434590395        1.61231206184550        2.38183643833268
C            1.62630572363295        1.06429812957031        1.53451157770321
O            0.53599261985123        1.52480846296202        1.39997215174745
C            2.00460961582865       -0.26949710026662        0.70977166003395
C            2.95416115844216       -1.16736893709484        1.37832155482404
C            2.65550905166706       -2.45996646441021        1.68286756349916
C            1.41495329379747       -3.02918709325926        1.34335402819866
C            0.47602444595177       -2.27590733442593        0.66386741245169
C            0.76006026203323       -0.92838456959723        0.31758678148778
S           -0.54166017939748       -0.11988534944599       -0.41777535100176
C           -1.51240840016969       -1.56645658478034       -0.35549970027398
C           -0.84423115855805       -2.61615636186269        0.23939733021758
S           -1.79573204424892       -4.06027170944975        0.31412142508524
C           -3.12355668295462       -3.23098958276749       -0.47024639042195
C           -4.35538380720982       -3.78589416453077       -0.78041462515343
C           -5.29598778638442       -2.98752875420749       -1.40053648457988
C           -5.01796628775902       -1.65508346405230       -1.70972525396242
C           -3.79662570967821       -1.09649365971620       -1.40485387453190
C           -2.83012354785071       -1.88367554838756       -0.77751508817509
H           -0.16982586266411        7.18766269674390        1.87262425205607
H           -0.23448198067958        5.44268648309811        2.13163940218383
H           -1.41039699669658        6.22207651490534        1.07457272036152
H            0.40592650799073        6.82448083623518       -0.52103432069145
H            1.59344702290734        6.07825164058634        0.54379888900181
H           -0.75054665820331        4.63266306361758       -0.76578827960858
H            0.46895742782961        3.87195094467806        0.24502243711540
H            0.78164587508074        3.56178793767877       -2.24715522535957
H            1.01250954027657        5.29965723234812       -2.40079453370397
H            3.14991718820991        4.21568286025675       -2.43811316756798
H            3.03646829571380        5.16839748076705       -0.97349157803502
H            2.07052716903059        2.45144459309862       -0.50332324627084
H            3.70282417517540        2.40966089634486       -1.17882024638245
H            2.89201968041008        4.02998332547174        1.27061406572971
H            4.49911081696891        3.94698123481873        0.56283088613128
H            4.36340639115988        1.38764149270853        0.96374424022038
H            4.66330333703980        2.45240287053112        2.33209634473182
H            2.28529522175907        2.42652198142172        2.96986983027312
H            3.06077579445382        0.83238005046580        3.06144536393508
H            2.50294835961508        0.22393614954711       -0.13946819513545
H            3.92927610034510       -0.77590284140913        1.62066325210450
H            3.38437388029934       -3.07487412727923        2.18681766540948
H            1.18877396274834       -4.04964267419175        1.61189571543329
H           -4.56852776720815       -4.81585816129566       -0.54086178571640
H           -6.26098448420830       -3.40073875673913       -1.64973967735512
H           -5.77401230971356       -1.05698070113157       -2.19427627101153
H           -3.57888325356335       -0.06662050910267       -1.64180158777409
54
 energy: -75.387161451370 gnorm: 0.000399757393 xtb: 6.5.1 (579679a)
C            0.52284244717705        7.38164270944973       -0.94899171072569
C            0.31138204923016        5.88425070079236       -0.75500818601795
C            0.15308077077131        5.48498624447971        0.71360643529824
C            1.38285704790286        5.73813132245023        1.59104004942807
C            2.66346509774568        5.03326651817841        1.13698070033881
C            2.52447254786300        3.51329682511425        1.07273191473178
C            3.85966472725307        2.83899427809904        0.75916730124142
C            3.74872460590378        1.31617803967423        0.66260943020964
C            3.06180295884412        0.89140350153826       -0.64006211597352
C            2.80632168782710       -0.56021148345035       -0.67433195147983
O            3.09835863777463       -1.40491567316118        0.09669484019238
C            1.90901380828724       -0.94822900994369       -2.03002955065412
C            2.59992054596462       -2.09749121382642       -2.59696791334159
C            2.24942739488663       -3.37283159944856       -2.25382327802413
C            1.12267079121163       -3.62187032709744       -1.45704962147541
C            0.29388859883987       -2.58003873453273       -1.06350116855187
C            0.62605570580184       -1.24619948063820       -1.41248688707620
S           -0.52851699987583       -0.09712120962841       -0.88658909372143
C           -1.51138661499708       -1.35721087778637       -0.20041629741454
C           -0.94843452964173       -2.60665066503151       -0.36553913177011
S           -1.92567112616628       -3.87204298328005        0.30305231155163
C           -3.11701786320751       -2.69016187719140        0.80625242382340
C           -4.30359907437073       -2.96693970610030        1.46722435696111
C           -5.13870724408718       -1.91380558881094        1.78421846624055
C           -4.80054258377811       -0.60086965000161        1.45214489346794
C           -3.62251206879100       -0.31654019115624        0.79832068076836
C           -2.76328207528029       -1.36538277196541        0.46687287429788
H            1.46749475398720        7.70483560962755       -0.51868749572607
H           -0.27891235876570        7.94522440607302       -0.47499474710472
H            0.53258781402480        7.62983437324702       -2.00855118523140
H           -0.59618482280874        5.58877722284592       -1.28782639735108
H            1.14641612971332        5.34394212783526       -1.20222577110353
H           -0.11359424146398        4.42775228180935        0.76520048475166
H           -0.68287336880566        6.04791683673192        1.13811353159935
H            1.57561076397350        6.81196010578899        1.63834209923317
H            1.14363429565584        5.41243565945541        2.60735196577315
H            2.96712368124902        5.41428214559716        0.16034717262228
H            3.45766374008763        5.29092435228732        1.84309982067128
H            2.15216110214402        3.14854090293727        2.03265364388336
H            1.78960785830609        3.26314461737973        0.30833520958752
H            4.56913824262224        3.08359207045864        1.55197805301493
H            4.26292472873179        3.24087125254603       -0.17210760758088
H            4.74380620724592        0.87173725850545        0.70419826478133
H            3.18388503754006        0.93892787030426        1.51619975253186
H            3.68660674801405        1.15958905948925       -1.49680905815639
H            2.11309504554361        1.42038277725942       -0.75945850872026
H            1.92549505148135       -0.05687672525357       -2.65207826998332
H            3.45999587397686       -1.90984061105477       -3.22061127517179
H            2.82432783370139       -4.21004568887773       -2.61634286485031
H            0.86686562025754       -4.63259238435463       -1.17687900385801
H           -4.56397897089358       -3.98201787109352        1.72298011741146
H           -6.06801812241687       -2.11017183525745        2.29600094635839
H           -5.47529394359997        0.19973936702324        1.71232982532929
H           -3.35839048144035        0.69702869386944        0.53926924073439
54
 energy: -75.381899682274 gnorm: 0.000301497012 xtb: 6.5.1 (579679a)
C           -0.62284781779137        6.25231567849965        1.25040057940976
C           -0.21583232691626        5.60559641000482       -0.06934169367683
C            1.22206699130453        5.92599003992659       -0.48553218380231
C            2.30271685803976        5.43356300947784        0.47993886648628
C            2.35298466346682        3.91176895862451        0.61346412452521
C            3.52240369630781        3.47350530235260        1.49392045898282
C            3.52098141012425        1.98994929576677        1.86950642651462
C            3.73996346474054        1.03675602544781        0.68725171066083
C            2.40912496880029        0.54179754382582        0.08371435072529
C            2.70749549265066       -0.34452321132079       -1.06451928452629
O            2.96527720150247       -0.03402178024394       -2.17853775256787
C            2.67464463806098       -1.94537098196529       -0.71028809913110
C            3.44069051893978       -2.19031367507225        0.50906061598884
C            2.83313755958638       -2.44560742572277        1.70612863189008
C            1.43952639193681       -2.58319396462453        1.79715807761862
C            0.65034142550501       -2.50062196532831        0.65775248793006
C            1.24960439481843       -2.25013145648549       -0.60516299774219
S            0.13677780357901       -2.25185867983400       -1.90342234045429
C           -1.17542267737951       -2.59256679451395       -0.80853751814933
C           -0.75279742323247       -2.69565324904512        0.50190267033257
S           -2.04861956589766       -3.04823583917550        1.59616295627494
C           -3.17998377188423       -3.05773204183584        0.26077820847290
C           -4.54354310335086       -3.28928048420116        0.35586019351122
C           -5.29538589918329       -3.26008881838934       -0.80192177176264
C           -4.70271452530197       -3.00402918514559       -2.03961855445252
C           -3.34913528271148       -2.77329465674677       -2.14270266734120
C           -2.56845794169498       -2.79740190553671       -0.98595681896017
H           -0.45638928954090        7.32735151971506        1.21553303482475
H           -0.05372438521934        5.84425909667846        2.08152186204858
H           -1.67904646264339        6.07822569745765        1.44599638260801
H           -0.35233082848890        4.52534639141915       -0.00072715814279
H           -0.88225902799959        5.96726267577543       -0.85696710266518
H            1.31917361142505        7.01023717462995       -0.58771225604597
H            1.40335378992207        5.48977869401888       -1.47177098484197
H            3.27011250281713        5.78747871013149        0.11262778629497
H            2.14906816933138        5.88371466069117        1.46222963652059
H            1.42021545854742        3.55784351362556        1.05482655846733
H            2.45511995223605        3.48722840309648       -0.38686649673621
H            4.46189805638615        3.72049310724697        0.99392771077328
H            3.49044517008597        4.05254842006818        2.42053317428622
H            2.58665109366737        1.74705705530829        2.37667678225907
H            4.33060790219661        1.83667083336755        2.58495859894024
H            4.32830808147115        1.53600457490195       -0.08311486906436
H            4.30284814786114        0.16962288035145        1.03437316337666
H            1.85141001858482        1.39925759222471       -0.29483580622872
H            1.83243740904841        0.03634002875462        0.85487394605262
H            3.14742784456219       -2.37811304379553       -1.59446563665820
H            4.51602962891687       -2.14562693136565        0.43383750412432
H            3.42690456454175       -2.58202068290863        2.59605829103962
H            0.97268519223582       -2.79194424045034        2.74790772720746
H           -5.00085693261390       -3.48752526519696        1.31250058287219
H           -6.35821638807909       -3.43787681773594       -0.74897973986639
H           -5.31742546966329       -2.98747745914394       -2.92616286303600
H           -2.88790536930436       -2.57553862540108       -3.09794914766788
54