24
energy: -37.470694069066 gnorm: 0.005614712221 xtb: 6.5.1 (579679a)
C            2.23302000000000       -2.14071000000000        1.34733000000000
C            2.18103000000000       -1.00343000000000        0.37728000000000
O            3.08024000000000       -0.23366000000000        0.13586000000000
O            0.96973000000000       -0.92145000000000       -0.20624000000000
C            0.76455000000000        0.03050000000000       -1.18520000000000
C           -0.38503000000000        0.05424000000000       -1.93804000000000
C           -1.67063000000000       -0.29376000000000       -1.46884000000000
C           -1.92215000000000       -0.71156000000000       -0.20722000000000
C           -0.70118000000000        1.32592000000000        0.90544000000000
C           -2.07011000000000        1.71714000000000        0.69946000000000
O           -2.97224000000000        1.62630000000000        1.51905000000000
C            0.30688000000000        1.68673000000000        0.05289000000000
H            1.86910000000000       -1.79189000000000        2.31265000000000
H            1.59550000000000       -2.95166000000000        1.00912000000000
H            3.25965000000000       -2.47352000000000        1.46645000000000
H            1.69112000000000        0.40558000000000       -1.61054000000000
H           -0.32678000000000        0.59724000000000       -2.86968000000000
H           -2.49926000000000       -0.07497000000000       -2.12816000000000
H           -2.93429000000000       -0.84191000000000        0.13762000000000
H           -1.14746000000000       -1.07151000000000        0.44120000000000
H           -0.48655000000000        0.79618000000000        1.82298000000000
H           -2.25905000000000        2.21879000000000       -0.27113000000000
H            0.09554000000000        2.38518000000000       -0.74108000000000
H            1.32836000000000        1.66622000000000        0.39879000000000
24
energy: -37.380297943661 gnorm: 0.178541200427 xtb: 6.5.1 (579679a)
C            2.18189465222551       -2.03895123145989        1.41565557109965
C            2.16560102396400       -0.95872658846232        0.38126933758018
O            3.11457531389246       -0.25468566163638        0.12990871736620
O            0.94841290622210       -0.93636845190442       -0.19528688573699
C            0.76483629434975        0.05940409961582       -1.13411958956400
C           -0.34651193809086        0.07277491884497       -1.94256995064569
C           -1.64541284715880       -0.27638927549791       -1.51249944653268
C           -1.92933869221719       -0.70133744554747       -0.26017790827723
C           -0.69326452622531        1.26747434691591        0.90991684093847
C           -2.05532746696350        1.68706548592828        0.71452495073427
O           -2.96055361651722        1.58397607961646        1.52923740853611
C            0.28532484188384        1.66280005897552        0.03854393913716
H            2.14966673058347       -1.59669493302985        2.41030453319506
H            1.36047000222067       -2.73736605298109        1.28941808101742
H            3.16057126518096       -2.48149658284076        1.25669990024601
H            1.69111968696286        0.40612153477951       -1.58347145725889
H           -0.41008118071609        0.64411210676769       -2.85675145869917
H           -2.39565631396110        0.01430964237231       -2.23487636597099
H           -2.94891730762893       -0.80147848286102        0.07263480620752
H           -1.18380264810336       -1.14738752692955        0.36860852954451
H           -0.54060639898468        0.66165909573122        1.79210362396582
H           -2.16418031702285        2.31792060226997       -0.19077547475381
H            0.17515873617179        2.43592388031588       -0.70511481133090
H            1.29221294881023        1.58976593301156        0.41845341450964
24
energy: -37.321717783329 gnorm: 0.177273072297 xtb: 6.5.1 (579679a)
C            2.19641222907347       -1.97378281866472        1.51501019527211
C            2.14058218567952       -0.97486171455935        0.40318939817776
O            3.05637571587561       -0.26467734346983        0.06206107597557
O            0.97438269266895       -0.96370119927106       -0.27084196599134
C            0.76291491204852        0.00382573421393       -1.23304954676905
C           -0.37519828572635        0.14423926045762       -1.99057733889967
C           -1.66015356855743       -0.20810367998856       -1.52285465480213
C           -1.89734594079012       -0.70529300611604       -0.28752198173761
C           -0.70568687853235        1.26578147465440        0.93299343137958
C           -2.06665824966445        1.68447766455989        0.72829700917409
O           -2.97669590301604        1.53384376589291        1.53014432055088
C            0.31053146081404        1.66357275069625        0.10699542129327
H            2.51584105604101       -1.46934352128588        2.42575829521425
H            1.22831398726876       -2.45132160164108        1.62990224949063
H            2.91922097518815       -2.74040273736499        1.25278382825343
H            1.67238241291409        0.43313469312735       -1.64377309874313
H           -0.09390223746283        0.69168058961080       -2.87791929593825
H           -2.54167591257207       -0.04746556195589       -2.12809297247060
H           -2.91436867676830       -0.83558249333657        0.04266366642718
H           -1.11867270036405       -1.12401285706969        0.31951903813645
H           -0.54742317258318        0.60971504757403        1.77744568042468
H           -2.29704218828085        2.30875869549405       -0.15860345399082
H            0.25921493627343        2.43891605731894       -0.64073095346242
H            1.31711357156964        1.50424102120667        0.46039988646399
24
energy: -37.298181382915 gnorm: 0.121406429792 xtb: 6.5.1 (579679a)
C            2.13513168567559       -1.88473730511998        1.55238788420359
C            2.12170601567016       -1.00338975188826        0.34402033730317
O            3.02738957363758       -0.26495921152081        0.03764504914920
O            0.93837366353492       -0.97491850799310       -0.29892449042337
C            0.79837834667811        0.05570558072372       -1.20715669580305
C           -0.32908834143155        0.11092077006494       -1.99114404275676
C           -1.63632967938480       -0.21997962939616       -1.57204359762400
C           -1.92056530687976       -0.71182613516169       -0.34452520264865
C           -0.66729515376684        1.22049776908099        0.96834339822826
C           -2.02630919402408        1.64429964418873        0.76116471756071
O           -2.95206085873384        1.44953326277087        1.53503041922959
C            0.31961250760281        1.62872865494974        0.11243970260380
H            2.88878540291210       -1.44711680725348        2.20541947846735
H            1.18777839787345       -1.93790567158061        2.07978959872051
H            2.47485666223497       -2.86818681597616        1.24200867136247
H            1.76634579690592        0.40084530025454       -1.55936226809789
H           -0.40089255097697        0.74526440536443       -2.86214780493615
H           -2.42453118255660        0.12928996139830       -2.22469115025044
H           -2.94169718340688       -0.81043607605797       -0.01604546219449
H           -1.15578574374606       -1.08954076196355        0.30555250112606
H           -0.51499312893729        0.58964930674432        1.83286897250647
H           -2.14801852950300        2.15644452895603       -0.21468898581797
H            0.19221348235261        2.43100782625247       -0.59678732708262
H            1.31910723881197        1.62454577719121        0.51800307265345
24
energy: -37.262892459230 gnorm: 0.180277759660 xtb: 6.5.1 (579679a)
C            2.12448921098003       -1.77734326271804        1.62496344742185
C            2.10539659797252       -0.93370610366977        0.39004738417042
O            3.06841380927747       -0.30201715198645        0.02538987736020
O            0.97381465640518       -0.99510518271122       -0.33811233377461
C            0.78656107197408        0.01591769419139       -1.25976263577656
C           -0.36788768651294        0.20352078168091       -1.98150992331037
C           -1.66843657293172       -0.19273488817773       -1.59996805680459
C           -1.92618355632938       -0.71822303422432       -0.38056944135168
C           -0.67367205298975        1.14057626807247        0.93466595091165
C           -2.03689850268137        1.56450306143387        0.75760682331912
O           -2.95899299057587        1.40675567988006        1.54416625584066
C            0.39171125949432        1.53486721108747        0.17131584283815
H            3.18908521209374       -1.74909685611726        1.85254502433588
H            1.51644840339861       -1.24668826113211        2.35101394387430
H            1.66432042102698       -2.73233361590146        1.39010313880863
H            1.70532255803292        0.39553018010184       -1.69782982597866
H           -0.22410753080392        0.86022268671880       -2.82665199137954
H           -2.40760092063794        0.19743863190988       -2.28597123919927
H           -2.93706927202866       -0.86176797136403       -0.03729390804342
H           -1.21145300488612       -1.16229272751676        0.28435122093175
H           -0.49720136818476        0.56736998581293        1.83403396376805
H           -2.23328879583357        2.16027182835882       -0.15666142716841
H            0.15636614643149        2.33249631286991       -0.51518678550839
H            1.39382779160087        1.59388287051137        0.56599099335778
24
energy: -37.241452088717 gnorm: 0.211206357539 xtb: 6.5.1 (579679a)
C            2.03557761905733       -1.58222660476403        1.67941655985500
C            2.12076581583452       -0.95060618113231        0.32630734771435
O            3.08466605331038       -0.30404065133102       -0.00874126073215
O            0.98725972300070       -1.04056203289573       -0.39586716894064
C            0.81430792458208        0.01144383624334       -1.27338738416937
C           -0.32198174228035        0.18813972048493       -2.02604285572500
C           -1.64407132793465       -0.12927679481304       -1.64480022932923
C           -1.89927010548839       -0.75821735208749       -0.47483802735459
C           -0.69044180989415        1.04688953566969        0.95024251366773
C           -2.03975556680747        1.51927174604596        0.79006260705038
O           -2.94877874893093        1.35588642427076        1.59056263143075
C            0.37445253168524        1.51618991050838        0.22984852185871
H            2.74263689988919       -2.40974932669157        1.64435631602405
H            2.39477386247421       -0.83101237861090        2.37591705723910
H            1.03491170161289       -1.93843603823744        1.90459168461557
H            1.75070881477413        0.44805376201482       -1.60903046432711
H           -0.16672202469445        0.92060336759999       -2.80423730834522
H           -2.57600471685892        0.13106438788682       -2.12742042071614
H           -2.93050150515388       -0.85532790135375       -0.17909409189117
H           -1.13962227912496       -1.15943877572040        0.16712275880342
H           -0.51548173083303        0.40062795741582        1.79895040572962
H           -2.19051949800109        2.22119736186066       -0.05490286504047
H            0.08111941595897        2.24660668702912       -0.50726230290463
H            1.38486230394727        1.52873328831245        0.60721254889939
24
energy: -37.231833275989 gnorm: 0.112959808396 xtb: 6.5.1 (579679a)
C            1.95277441211733       -1.37649669096080        1.76429002705376
C            2.05558843065945       -0.89064141761546        0.35344643428308
O            3.05855130677289       -0.38427358146529       -0.09047376137888
O            0.98615534524130       -1.03063195985637       -0.45351048602701
C            0.81066546273475        0.05867835064817       -1.28373731099857
C           -0.31140397894266        0.24689275161295       -2.05471150160834
C           -1.59795087261800       -0.19700506616077       -1.67818568968298
C           -1.89213271946125       -0.81172834977899       -0.50982084617166
C           -0.66054139019899        0.97166796422454        1.00627106903169
C           -2.00888721177943        1.45033808271224        0.85697715544676
O           -2.92817082635019        1.26066125307945        1.63976611546874
C            0.37378376507835        1.44377661211493        0.24436869213693
H            1.67918038998751       -2.42619727419641        1.66821272450160
H            2.96088962647189       -1.15041726448220        2.09753086735049
H            1.22036380338145       -0.75971896259590        2.27622864713560
H            1.77065705954605        0.47121582040014       -1.58099139609193
H           -0.31577975006440        0.95554417648814       -2.86956675716420
H           -2.24721950899340        0.32866434005147       -2.36471424785936
H           -2.90817066434419       -0.96508044840453       -0.18658236169340
H           -1.12772994277441       -1.31746592550425        0.04702290073165
H           -0.53924687145383        0.26586943646334        1.81602797238420
H           -2.07408940507004        2.17502491965114        0.02033286743735
H            0.16571701919593        2.28174817903373       -0.40169418862822
H            1.38425455970622        1.41400954857352        0.62060207840720
24
energy: -37.177773307671 gnorm: 0.199027592379 xtb: 6.5.1 (579679a)
C            1.83408436267938       -1.06744082376024        1.77319863072756
C            2.07730779706967       -0.91008648441674        0.30582415568247
O            3.10913306480731       -0.49301508104509       -0.16406544238207
O            1.03881880548755       -1.09911082487889       -0.53099990901936
C            0.82204276650742        0.02920412467769       -1.29688758968457
C           -0.29967840595966        0.29567726115258       -2.04495152178757
C           -1.61569965901730       -0.06278850591866       -1.67942383415542
C           -1.89300474857672       -0.77197481558668       -0.56154149366057
C           -0.61540572919541        0.85856850625183        1.02908923694165
C           -1.97295276273871        1.31961083218052        0.91095261841726
O           -2.90926504592214        1.12641558995485        1.67240723958870
C            0.38843243689930        1.40705217558997        0.27763401326556
H            0.87671961564935       -1.52312538933703        2.02171465503794
H            2.64003510097704       -1.61871348589882        2.24753980871301
H            1.79795999472108       -0.08010325027118        2.22351052124320
H            1.74152434868921        0.50958629584446       -1.61925034664743
H           -0.13111225689156        1.03251419696752       -2.81621801667758
H           -2.47177256763479        0.22761459609730       -2.27272382801344
H           -2.92034062164226       -0.97120197864963       -0.30615413568897
H           -1.15940104015395       -1.41374969413580       -0.11420746555253
H           -0.50067106548818        0.12034035897107        1.81038645119950
H           -2.16192132220056        2.06063034089329        0.10809709835118
H            0.33156002107932        2.32660531884235       -0.28278807496205
H            1.41651405084527        1.24661689327240        0.56188318181958
24
energy: -37.123175363209 gnorm: 0.266487621667 xtb: 6.5.1 (579679a)
C            1.67481883186981       -0.67502321325999        1.69538729339223
C            2.01626386456917       -0.89513266562118        0.25591763750102
O            3.14576986452291       -0.75368892713724       -0.14857953746386
O            0.98946250721360       -1.15039201417043       -0.57774034764532
C            0.82841295319390        0.01975616311550       -1.29292321618350
C           -0.27471614935713        0.36665594869214       -2.03564283269065
C           -1.57928237305998       -0.04432245183826       -1.68461066415402
C           -1.86398117528281       -0.83414389060145       -0.62412361901984
C           -0.59543079248106        0.74657733198192        1.03620855461865
C           -1.94396318633328        1.24169437028904        0.96025039447421
O           -2.81463673012580        0.91699840597883        1.75417626805463
C            0.41780706737030        1.33239374168345        0.32671686802218
H            0.60529811876907       -0.58044535366726        1.87742118916048
H            2.05493265859882       -1.40643059105380        2.40179679854208
H            2.10311397417693        0.29296813827401        1.93720798233000
H            1.75914231794296        0.52523104718256       -1.53452003244201
H           -0.12589660794538        1.18260450922758       -2.72721768051098
H           -2.39776029588386        0.47610009171059       -2.16257907814148
H           -2.90505024472984       -0.93929276187500       -0.36828772870627
H           -1.05923966084581       -1.34373675490966       -0.13131202190384
H           -0.50946110131418       -0.02478300559087        1.78865959548493
H           -2.05659145549780        2.01556932693788        0.17422978946299
H            0.35882978823496        2.25726692966166       -0.22466014182021
H            1.43754422957447        1.06660555537762        0.55689419573903
24
energy: -37.125848657479 gnorm: 0.197117476849 xtb: 6.5.1 (579679a)
C            1.80477401284335       -0.35755647054395        1.63744423240060
C            2.02761447323095       -0.98818595120866        0.29962715635444
O            3.13314642069763       -1.18829963959023       -0.14440192626465
O            1.02626892322728       -1.11459958818482       -0.59244392816189
C            0.85006435862558        0.06037947094179       -1.29603938372714
C           -0.25192547257728        0.37138249116356       -2.05614560672461
C           -1.58187707290820        0.00450887195497       -1.75505994024915
C           -1.88658089335202       -0.78797802789052       -0.70214763144557
C           -0.65707722175578        0.72249276421748        1.02489836275263
C           -2.01207981867046        1.20401267773959        0.98544312922737
O           -2.76842720726560        0.73461535976661        1.82295312302594
C            0.37527248357991        1.28489917855829        0.32406784027275
H            0.72793739029526       -0.20008827710184        1.59766294792223
H            1.87458539016393       -0.87454273081743        2.58944701979530
H            2.25726112272122        0.58677825523255        1.92451326413458
H            1.80226497892275        0.54754867088837       -1.48606910207764
H           -0.21337917907084        1.30143520267701       -2.60360458829602
H           -2.22052510230222        0.75462130214769       -2.20077248967467
H           -2.88724275210721       -1.02809201954231       -0.38378578212394
H           -1.18839642639251       -1.42158805338780       -0.19103716977449
H           -0.55045203544708       -0.04504676363567        1.77861202902309
H           -2.27374861702109        2.10367199023096        0.39253626662874
H            0.30027430411995        2.22982615008901       -0.19010493725575
H            1.39001564963473        1.12467827390625        0.65287541994362
24
energy: -37.139827557012 gnorm: 0.231598183288 xtb: 6.5.1 (579679a)
C            2.05391427565766       -0.29961607777852        1.58148903637414
C            2.19604869451217       -1.03515649590590        0.28692966569263
O            3.08888390947237       -1.76353674465501       -0.07599685308858
O            1.07356179913035       -0.97141478602041       -0.45497616154207
C            0.86487842737930        0.14072659332779       -1.24634410582975
C           -0.22232021907967        0.44343838567681       -2.03071049702304
C           -1.57032842197312        0.07777813411080       -1.82289667431253
C           -1.90952687701467       -0.75703445662593       -0.81416648748765
C           -0.76339248383557        0.79742879799764        1.02722631859410
C           -2.16304134720304        1.12817984470098        0.99502386302269
O           -2.86406350846679        0.59119499116949        1.84002883763773
C            0.22231455256823        1.46231853199474        0.34935199228336
H            0.99973745860185       -0.06087559298057        1.71441797826620
H            2.40743760471820       -0.68844652083476        2.53137841678355
H            2.53550809584212        0.67090919486623        1.51028974469654
H            1.80662651434610        0.63820868531744       -1.46024421512917
H            0.05375458554376        1.27284201318487       -2.66479845638736
H           -2.44137563604985        0.56286769995389       -2.24142328444506
H           -2.95269624570881       -0.94194842051581       -0.61939059744913
H           -1.27152044611798       -1.35229428462100       -0.19065172711565
H           -0.59682973848740        0.04894829404525        1.78920003415542
H           -2.50147301513525        2.09355954463220        0.56735338784716
H            0.00274238195582        2.30822397534939       -0.28240539930359
H            1.22578832597864        1.49556528211609        0.74359037221066
24
energy: -37.140836969969 gnorm: 0.265825958104 xtb: 6.5.1 (579679a)
C            2.43236230896149       -0.20391316585779        1.34306675308179
C            2.09777049150034       -1.21746919772829        0.29527938162825
O            2.71682647666640       -2.23992538812000        0.11989060787693
O            1.09695110527459       -0.78816478078949       -0.49751467074683
C            0.88364088316966        0.43710517434752       -1.09741692185901
C           -0.19446768570966        0.55631935345394       -1.94141682460378
C           -1.48345040815564        0.00592479646194       -1.76934278740128
C           -1.82567550973403       -0.79602424697196       -0.73529058886555
C           -0.88281164939627        0.84082873309509        1.06978807134632
C           -2.28980773257143        1.11228496158503        0.94280881874806
O           -3.02634219377690        0.49527690467430        1.69821351508215
C            0.14396349074199        1.55304659134281        0.51149705831106
H            1.51572768151992       -0.06897949588598        1.91536891032083
H            3.23503934577773       -0.43678768828713        2.03584141168815
H            2.70049658215335        0.75553744552244        0.91123369211741
H            1.75383048964694        1.02124073855383       -1.38322601901538
H           -0.01887470269998        1.14343965558884       -2.83060300503355
H           -2.09494544497343        0.43815346159595       -2.54937602133295
H           -2.84074726418903       -1.12688786067508       -0.59214118179974
H           -0.99741242882806       -1.14634026894627       -0.15098239239160
H           -0.66727536349625        0.10363959068243        1.83048934863336
H           -2.69538925528460        2.00454254345280        0.42437268033286
H           -0.21067567171716        2.34195472798193       -0.13250633844025
H            1.10974660501957        1.58392033123303        0.99087024122845
24
energy: -37.182375945542 gnorm: 0.183862760624 xtb: 6.5.1 (579679a)
C            2.82287050630305       -0.09434010394449        0.98740430996356
C            2.15156055697306       -1.25233186842990        0.31994347355359
O            1.96099153266742       -2.44459959022892        0.35981010279736
O            1.19059416154378       -0.66759574761027       -0.42106355510253
C            0.94849988278443        0.56027253240705       -1.00450191899726
C           -0.11978727980029        0.69771142876262       -1.85816408533243
C           -1.35241193988506        0.01960371798682       -1.73639985958153
C           -1.69012595741475       -0.83407910127902       -0.74308261170818
C           -0.93051426529705        0.77814726628314        1.16548770010147
C           -2.33204495457097        1.01767196884712        0.94687883927780
O           -3.28045740986155        0.45326683013176        1.47202535479983
C            0.09544228494193        1.53454045194355        0.66699715340059
H            2.32008182927840        0.12859332498637        1.92732991457354
H            3.85827740857737        0.07312265549457        1.26730875564655
H            2.55813985086605        0.73916833843097        0.34389625434485
H            1.85760761553407        1.13561109818609       -1.15496734462914
H           -0.14087018780095        1.37268593756539       -2.70087409805505
H           -2.14405712016742        0.12556615824660       -2.46528224861079
H           -2.66261807039452       -1.28766351388150       -0.64898991913591
H           -0.92045691055204       -1.33836906655245       -0.19221210300138
H           -0.72672857851856       -0.02281173986997        1.86227046287166
H           -2.52725944450535        1.78177802825198        0.16750137921096
H           -0.20997993050451        2.40674153854654        0.11123830928080
H            1.03036726963412        1.58719584116676        1.20237696475899
24
energy: -37.144237250528 gnorm: 0.211860992348 xtb: 6.5.1 (579679a)
C            3.10585945567091       -0.12121124372028        0.59895418373674
C            2.04473884251682       -1.16885398731377        0.48244823883532
O            1.57456103025469       -2.23042123003361        0.81623859860757
O            1.20825941688364       -0.67410362537624       -0.45028341175966
C            0.93950863274289        0.59403693286649       -0.92595444809671
C           -0.12513450397224        0.77143316966680       -1.77679607565992
C           -1.31112182378906        0.00698140952522       -1.72140961804250
C           -1.60170288255666       -0.97006448280646       -0.83233808349849
C           -0.99107198771802        0.62041077569996        1.25956084912037
C           -2.34410896502091        0.91486985049339        0.86964420783501
O           -3.42235566030219        0.47595994768594        1.24188119318207
C           -0.00143057643196        1.44842840513771        0.80326379003658
H            3.18133798761733        0.26304017888660        1.61512825210235
H            4.10538071959309        0.02487045056108        0.20136759038972
H            2.66769305710774        0.73104486719799        0.08847305813230
H            1.79307903312969        1.26058144367946       -1.01120185239708
H            0.06536332248929        1.77234692324471       -2.13467514060642
H           -2.11451150397975        0.36722836732714       -2.34909328542365
H           -2.62041104721070       -1.31168674619585       -0.75578058933578
H           -0.88389484343696       -1.49456982397118       -0.23250237269702
H           -0.75792468078107       -0.29582841483825        1.78369655314110
H           -2.26838796205286        1.65196892345650        0.04481253922479
H           -0.23047240360307        2.41471707553793        0.38289323154462
H            0.97953794124886        1.38851411273937        1.24778589980081
24
energy: -37.097939103177 gnorm: 0.299759912295 xtb: 6.5.1 (579679a)
C            3.23934971932268       -0.13750758384026        0.41936814271092
C            2.01419796448764       -0.98214580293886        0.57001803236911
O            1.79092835261973       -1.81661688839188        1.41453973804085
O            1.18038327418148       -0.77834824517210       -0.46809745217291
C            0.92230172022020        0.51263161179932       -0.88455316770807
C           -0.10193490750155        0.84650870153453       -1.73797650422804
C           -1.35191624186315        0.19095913796067       -1.78065618116772
C           -1.67843616222998       -0.84855056861094       -0.97921462515531
C           -1.05952490852709        0.43345183838480        1.18273921908018
C           -2.41128633327063        0.77276276888392        0.82628533097600
O           -3.56627907612422        0.48482553291466        1.10359769010891
C            0.00993536321900        1.23228447079987        0.88052820097802
H            4.08823598613163        0.10097530060198        1.05848781576685
H            3.60381113342002       -0.77562393564551       -0.37965192655401
H            2.92673629275447        0.85825463880885        0.11994919278030
H            1.79805041525144        1.15537424000312       -0.87576103250149
H           -0.35218631134396        1.85626692394968       -2.02773120021002
H           -2.08591671002368        0.73557983507663       -2.35843751048108
H           -2.66317678323858       -1.28392555304617       -0.94653910185621
H           -0.89747126217336       -1.33600936752186       -0.42909203162009
H           -0.86146712425586       -0.53151556035726        1.62791469895039
H           -2.32131924342924        1.68710759208271        0.20557970438555
H           -0.13660274890151        2.26660606324073        0.61296364195435
H            0.98301350901007        0.99301626869612        1.27972554594797
24
energy: -37.119108301837 gnorm: 0.236919245836 xtb: 6.5.1 (579679a)
C            3.30273893416623       -0.11475428409950        0.13967382413321
C            2.07185141743353       -0.80348429184407        0.63734111922099
O            1.99397175044896       -1.34907211346192        1.71236522943418
O            1.08263643448688       -0.94503828297051       -0.26591978261685
C            0.90543368806894        0.30903938719945       -0.81597323732925
C           -0.03102855440373        0.81511673295102       -1.68533517059129
C           -1.33564363700711        0.30847135922597       -1.87324495854151
C           -1.83765786206721       -0.74914920215276       -1.19580512693611
C           -1.17889613719576        0.23393273420128        1.13455141504043
C           -2.44306355052366        0.86134153875120        0.85582370363867