24
energy: -37.485882697813 gnorm: 0.001178246249 xtb: 6.5.1 (579679a)
C            2.21290822620951       -2.12622065364149        1.34638495703201
C            2.17444958936911       -0.99150413461137        0.37937014139843
O            3.07580335845365       -0.22467144319690        0.13690446183373
O            0.96973000000000       -0.92145000000000       -0.20624000000000
C            0.76455000000000        0.03050000000000       -1.18520000000000
C           -0.38503000000000        0.05424000000000       -1.93804000000000
C           -1.67063000000000       -0.29376000000000       -1.46884000000000
C           -1.92215000000000       -0.71156000000000       -0.20722000000000
C           -0.70118000000000        1.32592000000000        0.90544000000000
C           -2.07011000000000        1.71714000000000        0.69946000000000
O           -2.96882232928488        1.62505454715652        1.52278178372797
C            0.30688000000000        1.68673000000000        0.05289000000000
H            1.85578117483272       -1.78296081073994        2.31503551843965
H            1.57499530143706       -2.93397531772099        1.00231484363983
H            3.23735872495144       -2.44834830957104        1.44675302520116
H            1.69112000000000        0.40558000000000       -1.61054000000000
H           -0.33015957006416        0.60044561034282       -2.86807474603653
H           -2.50105299155877       -0.07244166249446       -2.12512375217517
H           -2.93429000000000       -0.84191000000000        0.13762000000000
H           -1.14746000000000       -1.07151000000000        0.44120000000000
H           -0.48655000000000        0.79618000000000        1.82298000000000
H           -2.25992676065496        2.22649044112322       -0.26613739364266
H            0.09554000000000        2.38518000000000       -0.74108000000000
H            1.32836000000000        1.66622000000000        0.39879000000000
24
energy: -37.483957952047 gnorm: 0.002244550658 xtb: 6.5.1 (579679a)
C            2.20397351880383       -2.05956374758991        1.42646305189421
C            2.08590926964402       -0.88401371065580        0.52236557058145
O            2.89604056150522        0.00666240621638        0.41037509593429
O            0.94841290622210       -0.93636845190442       -0.19528688573699
C            0.76483629434975        0.05940409961582       -1.13411958956400
C           -0.34651193809086        0.07277491884497       -1.94256995064569
C           -1.64541284715880       -0.27638927549791       -1.51249944653268
C           -1.92933869221719       -0.70133744554747       -0.26017790827723
C           -0.69326452622531        1.26747434691591        0.90991684093847
C           -2.05532746696350        1.68706548592828        0.71452495073427
O           -2.96776281003545        1.55876814517785        1.52160138162987
C            0.28532484188384        1.66280005897552        0.03854393913716
H            2.68919759772182       -1.75398783605289        2.34513885262718
H            1.23240084718431       -2.50112106695295        1.61706214394054
H            2.82703674385108       -2.78485361289341        0.91403530915217
H            1.69111968696286        0.40612153477951       -1.58347145725889
H           -0.26104970910468        0.62071347711540       -2.86869231973210
H           -2.45824678434479       -0.02622659894057       -2.18068487328678
H           -2.94891730762893       -0.80147848286102        0.07263480620752
H           -1.18380264810336       -1.14738752692955        0.36860852954451
H           -0.54060639898468        0.66165909573122        1.79210362396582
H           -2.24042363313637        2.23571347384517       -0.22978644135309
H            0.17515873617179        2.43592388031588       -0.70511481133090
H            1.29221294881023        1.58976593301156        0.41845341450964
24
energy: -37.483840529962 gnorm: 0.001851134548 xtb: 6.5.1 (579679a)
C            2.15522158040176       -1.92559180200427        1.50986203720089
C            2.11490809631762       -0.88537349792774        0.44328370739717
O            2.97091735059929       -0.05804455024267        0.23522089419708
O            0.97438269266895       -0.96370119927106       -0.27084196599134
C            0.76291491204852        0.00382573421393       -1.23304954676905
C           -0.37519828572635        0.14423926045762       -1.99057733889967
C           -1.66015356855743       -0.20810367998856       -1.52285465480213
C           -1.89734594079012       -0.70529300611604       -0.28752198173761
C           -0.70568687853235        1.26578147465440        0.93299343137958
C           -2.06665824966445        1.68447766455989        0.72829700917409
O           -2.99105732133206        1.52425493358615        1.51121685517117
C            0.31053146081404        1.66357275069625        0.10699542129327
H            2.72215365311765       -1.54348591073098        2.35141471995069
H            1.15276115364444       -2.20920296934844        1.81045776153533
H            2.65761794629920       -2.79734549941673        1.10528583454690
H            1.67238241291409        0.43313469312735       -1.64377309874313
H           -0.29277601614330        0.74394709723630       -2.88194723656342
H           -2.49745830406969        0.06470197619206       -2.15040240390111
H           -2.91436867676830       -0.83558249333657        0.04266366642718
H           -1.11867270036405       -1.12401285706969        0.31951903813645
H           -0.54742317258318        0.60971504757403        1.77744568042468
H           -2.23420535982698        2.26027485055617       -0.20388684734848
H            0.25921493627343        2.43891605731894       -0.64073095346242
H            1.31711357156964        1.50424102120667        0.46039988646399
24
energy: -37.482102687351 gnorm: 0.003531076154 xtb: 6.5.1 (579679a)
C            2.15926608898967       -1.87633736465517        1.53047423563286
C            2.12514807760347       -0.95904801632883        0.35924541949474
O            3.04315827225521       -0.24516188461888        0.02938523178871
O            0.93837366353492       -0.97491850799310       -0.29892449042337
C            0.79837834667811        0.05570558072372       -1.20715669580305
C           -0.32908834143155        0.11092077006494       -1.99114404275676
C           -1.63632967938480       -0.21997962939616       -1.57204359762400
C           -1.92056530687976       -0.71182613516169       -0.34452520264865
C           -0.66729515376684        1.22049776908099        0.96834339822826
C           -2.02630919402408        1.64429964418873        0.76116471756071
O           -2.94277234238939        1.51310107639125        1.56168044944360
C            0.31961250760281        1.62872865494974        0.11243970260380
H            2.90422265273770       -1.49716386161492        2.22238891960867
H            1.18612614076719       -1.93745787373733        2.00435728485439
H            2.45050475526341       -2.86572332542924        1.19334785508724
H            1.76634579690592        0.40084530025454       -1.55936226809789
H           -0.25205617270555        0.69409300502297       -2.89788193551601
H           -2.44909447357768        0.02499549413110       -2.24060180328194
H           -2.94169718340688       -0.81043607605797       -0.01604546219449
H           -1.15578574374606       -1.08954076196355        0.30555250112606
H           -0.51499312893729        0.58964930674432        1.83286897250647
H           -2.19830457254302        2.20956452215865       -0.17577472148472
H            0.19221348235261        2.43100782625247       -0.59678732708262
H            1.31910723881197        1.62454577719121        0.51800307265345
24
energy: -37.480601579996 gnorm: 0.002513042078 xtb: 6.5.1 (579679a)
C            2.09242228584363       -1.78243439312143        1.57817450324062
C            2.16774154328889       -1.01855288171585        0.29680756281828
O            3.14373228450569       -0.44232109008575       -0.11805628073452
O            0.97381465640518       -0.99510518271122       -0.33811233377461
C            0.78656107197408        0.01591769419139       -1.25976263577656
C           -0.36788768651294        0.20352078168091       -1.98150992331037
C           -1.66843657293172       -0.19273488817773       -1.59996805680459
C           -1.92618355632938       -0.71822303422432       -0.38056944135168
C           -0.67367205298975        1.14057626807247        0.93466595091165
C           -2.03689850268137        1.56450306143387        0.75760682331912
O           -2.92851508349113        1.43642944702849        1.58294046038889
C            0.39171125949432        1.53486721108747        0.17131584283815
H            2.96389962227696       -1.53615021168828        2.17306227514185
H            1.18612429706414       -1.50637802083533        2.10986783088511
H            2.06549592674263       -2.85090556798477        1.38642037917890
H            1.70532255803292        0.39553018010184       -1.69782982597866
H           -0.27829925536009        0.82657756412429       -2.85797563669975
H           -2.49068917768592        0.09307227210717       -2.23825784328849
H           -2.93706927202866       -0.86176797136403       -0.03729390804342
H           -1.21145300488612       -1.16229272751676        0.28435122093175
H           -0.49720136818476        0.56736998581293        1.83403396376805
H           -2.22550708504374        2.13666424004399       -0.17437576730982
H            0.15636614643149        2.33249631286991       -0.51518678550839
H            1.39382779160087        1.59388287051137        0.56599099335778
24
energy: -37.476894209381 gnorm: 0.003368350509 xtb: 6.5.1 (579679a)
C            2.07475810584136       -1.63018585085935        1.61109446957097
C            2.19426864188617       -1.09578726018636        0.22532492613638
O            3.20614935350492       -0.68179475302451       -0.28290622087914
O            0.98725972300070       -1.04056203289573       -0.39586716894064
C            0.81430792458208        0.01144383624334       -1.27338738416937
C           -0.32198174228035        0.18813972048493       -2.02604285572500
C           -1.64407132793465       -0.12927679481304       -1.64480022932923
C           -1.89927010548839       -0.75821735208749       -0.47483802735459
C           -0.69044180989415        1.04688953566969        0.95024251366773
C           -2.03975556680747        1.51927174604596        0.79006260705038
O           -2.94505929530762        1.36688025436616        1.59336048480031
C            0.37445253168524        1.51618991050838        0.22984852185871
H            3.01774439105559       -2.05207545745727        1.92176238108342
H            1.85940588337346       -0.77535934838584        2.25394530737348
H            1.26453229054383       -2.34370832541762        1.70103450513029
H            1.75070881477413        0.44805376201482       -1.60903046432711
H           -0.21034638309990        0.84802557444350       -2.87494250479247
H           -2.45510885440422        0.18853867198070       -2.27985903905032
H           -2.93050150515388       -0.85532790135375       -0.17909409189117
H           -1.13962227912496       -1.15943877572040        0.16712275880342
H           -0.51548173083303        0.40062795741582        1.79895040572962
H           -2.19870340402690        2.15061996815843       -0.10931141480307
H            0.08111941595897        2.24660668702912       -0.50726230290463
H            1.38486230394727        1.52873328831245        0.60721254889939
24
energy: -37.476285899497 gnorm: 0.005008317928 xtb: 6.5.1 (579679a)
C            1.97945657181071       -1.44874831709091        1.69807691978508
C            2.14006506490993       -0.96900730434911        0.29302312223449
O            3.15537906394984       -0.49441472227786       -0.14965911621369
O            0.98615534524130       -1.03063195985637       -0.45351048602701
C            0.81066546273475        0.05867835064817       -1.28373731099857
C           -0.31140397894266        0.24689275161295       -2.05471150160834
C           -1.59795087261800       -0.19700506616077       -1.67818568968298
C           -1.89213271946125       -0.81172834977899       -0.50982084617166
C           -0.66054139019899        0.97166796422454        1.00627106903169
C           -2.00888721177943        1.45033808271224        0.85697715544676
O           -2.93032199931634        1.25337417804369        1.63374056001412
C            0.37378376507835        1.44377661211493        0.24436869213693
H            1.82225642119251       -2.52100955100532        1.74684135428763
H            2.87211288706047       -1.17914308317144        2.25550699871678
H            1.11499667758547       -0.96095457511873        2.14224351092978
H            1.77065705954605        0.47121582040014       -1.58099139609193
H           -0.22395272991080        0.92027896700815       -2.89032503225898
H           -2.41510870249054        0.12270570203611       -2.31226929982038
H           -2.90817066434419       -0.96508044840453       -0.18658236169340
H           -1.12772994277441       -1.31746592550425        0.04702290073165
H           -0.53924687145383        0.26586943646334        1.81602797238420
H           -2.16923088685992        2.10220240790729       -0.02896974887807
H            0.16571701919593        2.28174817903373       -0.40169418862822
H            1.38425455970622        1.41400954857352        0.62060207840720
24
energy: -37.462654344201 gnorm: 0.008903879621 xtb: 6.5.1 (579679a)
C            1.86270619173390       -1.09882355496100        1.77945558111324
C            2.14638281520041       -0.96891458554117        0.31412540331800
O            3.22564420178319       -0.69668956226425       -0.13741549780785
O            1.03881880548755       -1.09911082487889       -0.53099990901936
C            0.82204276650742        0.02920412467769       -1.29688758968457
C           -0.29967840595966        0.29567726115258       -2.04495152178757
C           -1.61569965901730       -0.06278850591866       -1.67942383415542
C           -1.89300474857672       -0.77197481558668       -0.56154149366057
C           -0.61540572919541        0.85856850625183        1.02908923694165
C           -1.97295276273871        1.31961083218052        0.91095261841726
O           -2.88959394822708        1.09053158597809        1.68469978646567
C            0.38843243689930        1.40705217558997        0.27763401326556
H            1.02118085138387       -1.74438143367447        1.99750846130079
H            2.75529870121643       -1.41890860191800        2.30741661446149
H            1.63116766570188       -0.09952834522807        2.15613397791973
H            1.74152434868921        0.50958629584446       -1.61925034664743
H           -0.16544575244687        0.98268829448577       -2.86366888385757
H           -2.42223909705579        0.33549459273993       -2.27517961779602
H           -2.92034062164226       -0.97120197864963       -0.30615413568897
H           -1.15940104015395       -1.41374969413580       -0.11420746555253
H           -0.50067106548818        0.12034035897107        1.81038645119950
H           -2.14678602002459        2.00225585558903        0.04734876860436
H            0.33156002107932        2.32660531884235       -0.28278807496205
H            1.41651405084527        1.24661689327240        0.56188318181958
24
energy: -37.443757390180 gnorm: 0.016324890418 xtb: 6.5.1 (579679a)
C            1.82205881142158       -0.91240018289971        1.82008466273654
C            2.08878949807924       -1.05606425224265        0.34041720250633
O            3.19953626256370       -1.04887468421438       -0.10721247135323
O            0.98946250721360       -1.15039201417043       -0.57774034764532
C            0.82841295319390        0.01975616311550       -1.29292321618350
C           -0.27471614935713        0.36665594869214       -2.03564283269065
C           -1.57928237305998       -0.04432245183826       -1.68461066415402
C           -1.86398117528281       -0.83414389060145       -0.62412361901984
C           -0.59543079248106        0.74657733198192        1.03620855461865
C           -1.94396318633328        1.24169437028904        0.96025039447421
O           -2.85624794772265        1.03033649863245        1.74167914431195
C            0.41780706737030        1.33239374168345        0.32671686802218
H            0.97950954740892       -1.49479196229620        2.16887589465379
H            2.72470780370622       -1.16275971009081        2.37374859915861
H            1.62862087698439        0.13043713842326        2.07937480535188
H            1.75914231794296        0.52523104718256       -1.53452003244201
H           -0.12493898602398        1.02324404755188       -2.87137426886576
H           -2.39155043682450        0.29458527186673       -2.31111326175592
H           -2.90505024472984       -0.93929276187500       -0.36828772870627
H           -1.05923966084581       -1.34373675490966       -0.13131202190384
H           -0.50946110131418       -0.02478300559087        1.78865959548493
H           -2.12064488303745        1.92736566103734        0.09237703876736
H            0.35882978823496        2.25726692966166       -0.22466014182021
H            1.43754422957447        1.06660555537762        0.55689419573903
24
energy: -37.439417781378 gnorm: 0.018234614582 xtb: 6.5.1 (579679a)
C            1.92047155250462       -0.74604521039484        1.81939678258895
C            2.12952302247624       -0.99762544799032        0.33713372077439
O            3.23732132663325       -1.05550545294129       -0.11298176275925
O            1.02626892322728       -1.11459958818482       -0.59244392816189
C            0.85006435862558        0.06037947094179       -1.29603938372714
C           -0.25192547257728        0.37138249116355       -2.05614560672461
C           -1.58187707290820        0.00450887195497       -1.75505994024915
C           -1.88658089335202       -0.78797802789052       -0.70214763144557
C           -0.65707722175578        0.72249276421748        1.02489836275263
C           -2.01207981867046        1.20401267773959        0.98544312922737
O           -2.90787097417420        0.94351342055981        1.77157568639727
C            0.37527248357991        1.28489917855829        0.32406784027275
H            0.98967958920625       -1.10316611057931        2.23775131945934
H            2.76388957613718       -1.15939359121095        2.36623054746609
H            1.97622374378071        0.32492630897393        2.03795936500546
H            1.80226497892275        0.54754867088837       -1.48606910207764
H           -0.07676900721874        1.02101277190115       -2.89587948957032
H           -2.37073572018013        0.35316553605446       -2.39956289688791
H           -2.88724275210721       -1.02809201954231       -0.38378578212394
H           -1.18839642639251       -1.42158805338780       -0.19103716977449
H           -0.55045203544708       -0.04504676363567        1.77861202902309
H           -2.22078858274540        1.90010418378380        0.13424573509399
H            0.30027430411995        2.22982615008901       -0.19010493725575
H            1.39001564963473        1.12467827390625        0.65287541994362
24
energy: -37.452943111668 gnorm: 0.007608309255 xtb: 6.5.1 (579679a)
C            2.25803652144926       -0.38360128868933        1.66481733176977
C            2.23656759647619       -1.05370957716424        0.32010278251381
O            3.15724427646493       -1.70073827746865       -0.09351070501881
O            1.07356179913035       -0.97141478602041       -0.45497616154207
C            0.86487842737930        0.14072659332779       -1.24634410582975
C           -0.22232021907967        0.44343838567681       -2.03071049702304
C           -1.57032842197312        0.07777813411080       -1.82289667431253
C           -1.90952687701467       -0.75703445662593       -0.81416648748765
C           -0.76339248383557        0.79742879799764        1.02722631859410
C           -2.16304134720304        1.12817984470098        0.99502386302269
O           -3.00627565246482        0.69766218531862        1.76791708490930
C            0.22231455256823        1.46231853199474        0.34935199228336
H            1.27214747990723       -0.24072068128786        2.08910092990600
H            2.86229837318044       -0.98075334980023        2.34205256955064
H            2.75881717700568        0.58308688045775        1.58433453152031
H            1.80662651434610        0.63820868531744       -1.46024421512917
H           -0.01718140261441        1.18524576789456       -2.78884415270700
H           -2.32241250841920        0.49277095107583       -2.47157384636395
H           -2.95269624570881       -0.94194842051581       -0.61939059744913
H           -1.27152044611798       -1.35229428462100       -0.19065172711565
H           -0.59682973848740        0.04894829404524        1.78920003415542
H           -2.46204787577881        1.86697612349949        0.21938750339767
H            0.00274238195581        2.30822397534939       -0.28240539930359
H            1.22578832597864        1.49556528211609        0.74359037221066
24
energy: -37.461393654356 gnorm: 0.006174295945 xtb: 6.5.1 (579679a)
C            2.56881971164223       -0.16748743473354        1.41020716999293
C            2.13566181139804       -1.10877319454547        0.32223493670576
O            2.60656530878246       -2.21232492639008        0.20005883022730
O            1.09695110527459       -0.78816478078949       -0.49751467074684
C            0.88364088316967        0.43710517434752       -1.09741692185901
C           -0.19446768570965        0.55631935345395       -1.94141682460378
C           -1.48345040815562        0.00592479646192       -1.76934278740129
C           -1.82567550973403       -0.79602424697195       -0.73529058886554
C           -0.88281164939628        0.84082873309509        1.06978807134633
C           -2.28980773257144        1.11228496158504        0.94280881874806
O           -3.16391362880967        0.59602875600068        1.62672262934392
C            0.14396349074199        1.55304659134281        0.51149705831106
H            1.73905467293687       -0.02771745106029        2.10280517726016
H            3.37709081432502       -0.64479941755382        1.95322432639735
H            2.91297247607466        0.79364531631281        1.03749358997798
H            1.75383048964694        1.02124073855383       -1.38322601901538
H           -0.11500072758380        1.36885248629017       -2.65351761671981
H           -2.22801484314927        0.33302101165522       -2.48365231719817
H           -2.84074726418903       -1.12688786067508       -0.59214118179973
H           -0.99741242882806       -1.14634026894627       -0.15098239239160
H           -0.66727536349625        0.10363959068243        1.83048934863336
H           -2.57022569697350        1.86666862089884        0.18269022726347
H           -0.21067567171715        2.34195472798195       -0.13250633844022
H            1.10974660501956        1.58392033123303        0.99087024122844
24
energy: -37.471165598543 gnorm: 0.001431529308 xtb: 6.5.1 (579679a)
C            3.03142758900361        0.03025687503104        1.06401588319774
C            2.15336279744556       -1.01109879249939        0.44235985734502
O            2.24609304091099       -2.18853253183098        0.70704691855391
O            1.19059416154378       -0.66759574761027       -0.42106355510253
C            0.94849988278443        0.56027253240705       -1.00450191899726
C           -0.11978727980029        0.69771142876262       -1.85816408533243
C           -1.35241193988506        0.01960371798682       -1.73639985958153
C           -1.69012595741475       -0.83407910127902       -0.74308261170818
C           -0.93051426529705        0.77814726628314        1.16548770010147
C           -2.33204495457097        1.01767196884712        0.94687883927780
O           -3.24458923281100        0.49363281552699        1.56724805686244
C            0.09544228494193        1.53454045194355        0.66699715340059
H            2.58561137858074        0.33816825529279        2.00879868862891
H            3.96912432009479       -0.45414912224870        1.29399281773975
H            3.20040426807390        0.89598696517721        0.43251490521098
H            1.85760761553407        1.13561109818609       -1.15496734462914
H           -0.08116449209696        1.53866407853679       -2.53486863987186
H           -2.13046571427132        0.36258947935246       -2.40829842387162
H           -2.66261807039452       -1.28766351388150       -0.64898991913591
H           -0.92045691055204       -1.33836906655245       -0.19221210300138
H           -0.72672857851856       -0.02281173986997        1.86227046287166
H           -2.55675339685669        1.81250299335761        0.20596049466458
H           -0.20997993050451        2.40674153854654        0.11123830928080
H            1.03036726963412        1.58719584116676        1.20237696475899
24
energy: -37.471161611830 gnorm: 0.002760554077 xtb: 6.5.1 (579679a)
C            3.23883331486163       -0.05979443952177        0.77381828816208
C            2.10282786102219       -0.99203139773407        0.49961365645534
O            1.98255320749194       -2.06961763166370        1.03415284729936
O            1.20825941688364       -0.67410362537624       -0.45028341175966
C            0.93950863274289        0.59403693286649       -0.92595444809671
C           -0.12513450397224        0.77143316966680       -1.77679607565992
C           -1.31112182378906        0.00698140952522       -1.72140961804250
C           -1.60170288255666       -0.97006448280646       -0.83233808349849
C           -0.99107198771802        0.62041077569996        1.25956084912037
C           -2.34410896502091        0.91486985049339        0.86964420783501
O           -3.36613770631500        0.41372369084790        1.31196045238465
C           -0.00143057643196        1.44842840513771        0.80326379003658
H            3.63115967095157       -0.29942501141723        1.75288599177104
H            3.99168333901830       -0.26968100298805        0.01688426181490
H            2.98145829718199        0.99120005683520        0.72457857334283
H            1.79307903312969        1.26058144367946       -1.01120185239708
H           -0.13222579042907        1.66343777015537       -2.38161168251677
H           -2.11628905215785        0.34990484625047       -2.35939413629068
H           -2.62041104721070       -1.31168674619585       -0.75578058933578
H           -0.88389484343696       -1.49456982397118       -0.23250237269702
H           -0.75792468078107       -0.29582841483825        1.78369655314110
H           -2.41885973646549        1.76466669274992        0.15870041392863
H           -0.23047240360307        2.41471707553793        0.38289323154462
H            0.97953794124886        1.38851411273937        1.24778589980081
24
energy: -37.470813149027 gnorm: 0.001780998977 xtb: 6.5.1 (579679a)
C            3.43566375916131       -0.26202270338907        0.31616946122991
C            2.28503299293694       -1.20260831945141        0.15774420135110
O            2.29638582679109       -2.35199926388640        0.53201542725053
O            1.18038327418148       -0.77834824517210       -0.46809745217291
C            0.92230172022020        0.51263161179932       -0.88455316770807
C           -0.10193490750155        0.84650870153453       -1.73797650422804
C           -1.35191624186315        0.19095913796067       -1.78065618116772
C           -1.67843616222998       -0.84855056861094       -0.97921462515531
C           -1.05952490852709        0.43345183838480        1.18273921908018
C           -2.41128633327063        0.77276276888392        0.82628533097600
O           -3.42984578018810        0.22432792678635        1.21928060353168
C            0.00993536321900        1.23228447079987        0.88052820097802
H            3.15755402251929        0.65986752296523        0.81828436873765
H            4.17396884927688       -0.78144012557846        0.90796263824468
H            3.83888787816417       -0.02911763674172       -0.66672355156863
H            1.79805041525144        1.15537424000312       -0.87576103250149
H           -0.01523428465796        1.79853704996926       -2.23727199695318
H           -2.10939266800899        0.63343420268987       -2.41454492898130
H           -2.66317678323858       -1.28392555304617       -0.94653910185621
H           -0.89747126217336       -1.33600936752186       -0.42909203162009
H           -0.86146712425586       -0.53151556035726        1.62791469895039
H           -2.48815860599377        1.70296864924726        0.22444854369199
H           -0.13660274890151        2.26660606324073        0.61296364195435
H            0.98301350901006        0.99301626869612        1.27972554594797
24
energy: -37.449686545602 gnorm: 0.013793139033 xtb: 6.5.1 (579679a)
C            3.42057734484812       -0.12596927395615        0.08456048438393
C            2.21872940909339       -0.94313178233450        0.52847757150786
O            2.23607057276562       -1.60831931122383        1.52922737311166
O            1.08263643448688       -0.94503828297051       -0.26591978261685
C            0.90543368806894        0.30903938719945       -0.81597323732925
C           -0.03102855440373        0.81511673295102       -1.68533517059129
C           -1.33564363700711        0.30847135922597       -1.87324495854151
C           -1.83765786206721       -0.74914920215276       -1.19580512693611
C           -1.17889613719576        0.23393273420128        1.13455141504043
C           -2.44306355052366        0.86134153875120        0.85582370363867