54
 energy: -75.380611797233 gnorm: 0.000727975111 xtb: 6.5.1 (579679a)
C           -3.61868324294374        3.36252333823849        0.07377642879563
C           -2.49125963465455        2.93571286822796        1.00645466461263
C           -1.19055759259549        2.69016881064389        0.24608214009982
C           -0.05911785771288        2.25421879256909        1.17523509377008
C            1.23666854984316        1.92889654576386        0.42868357419303
C            1.86761842790515        3.16604220245899       -0.21541358310877
C            3.35713739166829        3.03701016145250       -0.54859232219846
C            3.68283950430286        2.17769743948511       -1.76771133158271
C            3.56566106012268        0.63571596070681       -1.51780683209354
C            4.42750225169785        0.22565653192722       -0.53823072817237
O            5.16499534914684       -0.04291506412266        0.26422590466002
C            2.67836090873942       -2.28591958489744        0.47325821025242
C            3.13299896071289       -2.56058405729580        1.74925731823253
C            2.28554919112142       -2.44623129766240        2.85034636776048
C            0.96909651809866       -2.06622317896123        2.69563436013377
C            0.48735458595226       -1.78478236167029        1.41769005765941
C            1.35854964479187       -1.89408557299193        0.31418675791404
S            0.57144914823285       -1.48732342666109       -1.20447263383475
C           -0.91730789880935       -1.18209734802600       -0.36930904490865
C           -0.80904083640465       -1.38373631349435        0.98817141232816
S           -2.31043605054533       -1.09806335142634        1.82435487071519
C           -3.08639400491282       -0.70573884070918        0.30019477491247
C           -4.41448506276112       -0.35039056882018        0.13423355882283
C           -4.86810943402167       -0.07776296935978       -1.14200350933660
C           -4.01223304247036       -0.15532932489591       -2.24018191933705
C           -2.68953136044898       -0.50713965116780       -2.08240380993569
C           -2.21131519188098       -0.79040435509382       -0.80355982156086
H           -4.53959526073392        3.52191500730244        0.63106632843762
H           -3.80286195990503        2.59584677069614       -0.67664381583510
H           -3.36424031234009        4.28936936341489       -0.43624763868642
H           -2.33267683274018        3.71043540060556        1.76105088699821
H           -2.78488568908273        2.02337953434650        1.53214221769873
H           -0.91300688243150        3.60858880181266       -0.27310408750808
H           -1.36590078237906        1.91722446291958       -0.50646875595074
H            0.12569416412941        3.04128335313572        1.91041565221032
H           -0.38248898087310        1.36776517196462        1.72743288781687
H            1.93554025021262        1.48983138373550        1.14479972869325
H            0.99075978439725        1.18276629972242       -0.32886220823155
H            1.31851829452073        3.43276940653591       -1.11863488606921
H            1.76014402242235        3.99862350731152        0.48320900780808
H            3.89676405634978        2.68275516898576        0.33125815443798
H            3.72570033899998        4.04138322467912       -0.76707607058396
H            2.99075823338100        2.41172028551964       -2.57488830062532
H            4.69391244769820        2.39871236523439       -2.10588036669898
H            3.77919221763898        0.10125686114953       -2.45470525817052
H            2.52801965583639        0.38596886465570       -1.23947456536482
H            3.31790141449068       -2.40974650666768       -0.38592449996901
H            4.15417026389407       -2.87549050604138        1.89719160591702
H            2.66299160843390       -2.66744615930852        3.83696625332021
H            0.30452776339934       -1.98551716158031        3.54270192230039
H           -5.07563936948524       -0.28824671904671        0.98529298962029
H           -5.90090105348184        0.19993566623400       -1.28886170432415
H           -4.39551531066829        0.06433330169266       -3.22504516338233
H           -2.02339236387935       -0.56953253324090       -2.92951027263137
54
 energy: -75.376042114672 gnorm: 0.000564324286 xtb: 6.5.1 (579679a)
C            0.56776103670160        6.12729388229119        3.65688665758742
C            0.17945383611681        4.66423266778576        3.46916937217763
C            0.93639153202162        3.98160305424440        2.32867608371130
C            0.56466162623470        4.52678453888713        0.94997983446804
C            1.13303158138072        3.68768391056012       -0.19664692042526
C            2.66306129977974        3.69263179776384       -0.22583579141024
C            3.24784206247956        3.22390880181756       -1.55797480100979
C            2.83855165651551        1.81688563515648       -1.98130133372934
C            3.38425714978932        0.77310544051821       -0.94558015801375
C            3.08151603989647       -0.49645723567145       -1.35927434810112
O            2.80890837292803       -1.49848174603823       -1.78430675380651
C            2.12551897510558       -1.68024630367223        1.44828760947447
C            2.37689536961718       -0.74949445940832        2.43973315348039
C            1.37972343260670        0.12507425930779        2.87135443371825
C            0.11691667004259        0.08746628894482        2.31789825914765
C           -0.15793901737673       -0.83868987155643        1.31167984421792
C            0.85737974278457       -1.72363601176623        0.88755729637258
S            0.31843436363714       -2.82026620710246       -0.37628057562691
C           -1.25977303243471       -2.09551061887416       -0.33922580192711
C           -1.35752957859939       -1.08070168278170        0.58688674587254
S           -2.94164492931193       -0.35701586720547        0.61887927067107
C           -3.47324653070965       -1.45790312251093       -0.63698764408506
C           -4.74192524686645       -1.50389390501940       -1.19084094831318
C           -4.99759550820190       -2.44216101420584       -2.17196276403674
C           -4.00429358481213       -3.32279249670100       -2.59875822573011
C           -2.73987152836280       -3.28104151933141       -2.05330995234467
C           -2.45868758616082       -2.34338476520903       -1.06012917460208
H            0.06305621201727        6.54477472061502        4.52617812789212
H            0.28809603183943        6.72185222561259        2.79075811387081
H            1.64105606370951        6.22217584837661        3.81001387985813
H            0.38520497582814        4.12782939799541        4.39959637499748
H           -0.89629329178677        4.59851934985709        3.28534974653877
H            0.70570473939727        2.91480016791878        2.35454118412766
H            2.00641467040430        4.10522794362037        2.50207133113662
H           -0.52527475816459        4.54501167546748        0.86364268632608
H            0.91706236240508        5.55524058329170        0.85204742495215
H            0.74902383061173        2.67079589885424       -0.09809550233670
H            0.75584722019414        4.10057036757979       -1.13515154089151
H            3.00604535535360        4.71559979010024       -0.05871380280030
H            3.04988731175566        3.09239512343068        0.59777689321709
H            4.33493710009099        3.29968636895504       -1.51548261361295
H            2.90598844122701        3.89938413427079       -2.34478475477473
H            1.75512699067723        1.74327026280714       -2.03313851061699
H            3.25329575378199        1.60433532193255       -2.96472401322204
H            2.94586602006244        0.98591727509599        0.03902884168707
H            4.47415427221361        0.88939273369132       -0.85097904711521
H            2.88374861420404       -2.37962331149352        1.13407659567225
H            3.35327127835946       -0.70853633742198        2.89648389484048
H            1.59794992297231        0.83161712545528        3.65707822648692
H           -0.66649086429756        0.75037234226894        2.65227716339484
H           -5.50989122766044       -0.82237725000711       -0.85793958954254
H           -5.98137182610518       -2.49430791459440       -2.61282226079980
H           -4.23332990491130       -4.04630605736330       -3.36633805241468
H           -1.96868349897762       -3.96241123653761       -2.37982416461039
54
 energy: -75.376088191602 gnorm: 0.000529569292 xtb: 6.5.1 (579679a)
C            1.82494709384565        3.65081998216439        4.71538499967087
C            0.91464784615717        4.76973150882439        4.21884552295022
C            0.61123246816798        4.69007542177261        2.72074194872636
C            1.82380273311681        5.00899546534685        1.84564526175415
C            1.46640686809997        5.18665888667328        0.36795223147180
C            1.04713055469586        3.90304498446590       -0.35372922237407
C            2.22199060684449        2.94987012599786       -0.57720255927978
C            1.76985102134835        1.75038972570485       -1.40308249326088
C            2.99545082031297        0.80480126045701       -1.64777802250178
C            2.57731280981119       -0.36390116483770       -2.22790984349449
O            2.16286076401259       -1.28984432799490       -2.70616852010780
C            2.02324962810233       -1.49313178898108        0.82126265976485
C            2.14639174721625       -0.39718027001416        1.65599765158090
C            1.05402014882495        0.42879640154324        1.92046285706690
C           -0.17952824199391        0.17346187244070        1.35965754513791
C           -0.32712462749759       -0.92575285108864        0.51262016421185
C            0.78624276224756       -1.75422744002013        0.25096166883933
S            0.40673026674805       -3.08049402804696       -0.83934570434311
C           -1.23682576566964       -2.52767549470924       -0.94502265537716
C           -1.47007625809211       -1.40080565119410       -0.18803102833744
S           -3.11925261637767       -0.85188693878479       -0.29916284595212
C           -3.49077689938735       -2.17690662673284       -1.38339460480767
C           -4.72678980782892       -2.43557987068340       -1.95248385723859
C           -4.84954146973647       -3.52803492869032       -2.78898923109184
C           -3.75745487509322       -4.35283427800708       -3.05689402898386
C           -2.52534658382161       -4.10074151322402       -2.49411746183662
C           -2.37732495160682       -3.00401680628441       -1.64564390818497
H            2.79012268147608        3.68117319530110        4.21697500106773
H            1.36492876217287        2.68011191800681        4.54178416372217
H            1.99575484654166        3.75354646453402        5.78525623112312
H           -0.02830051584646        4.72489113621362        4.77097546389678
H            1.37447735219743        5.73615847714721        4.44239752026563
H           -0.18154230338932        5.40808274589261        2.49354202546830
H            0.22855391414402        3.69442332380734        2.49145065303819
H            2.26584946564343        5.94353540656221        2.20151117325668
H            2.57809254359195        4.23101148535760        1.95634858141899
H            0.64942235162285        5.90918123232214        0.29668902828370
H            2.32519504725066        5.61965373345193       -0.15052707404570
H            0.26405935973342        3.40151671602016        0.21432166388257
H            0.62416439567194        4.18329684000596       -1.32057636983014
H            2.59960373877537        2.61274380246135        0.38671519118451
H            3.01685539100511        3.48789031678374       -1.09434024267279
H            0.98894133791114        1.21375167962686       -0.86694385606651
H            1.37304245386399        2.08417258880187       -2.36021150072816
H            3.48067035466438        0.59253616876469       -0.68394582009942
H            3.73375231914378        1.31448494908085       -2.28340494650782
H            2.85720081926604       -2.14959133152495        0.62909133720053
H            3.09566708539745       -0.18763386881280        2.12415071878663
H            1.17622821487472        1.27470773770946        2.57808829665404
H           -1.03507484308836        0.79815200307663        1.56502113915519
H           -5.57087467447377       -1.79627404723201       -1.74269994755556
H           -5.80550743388561       -3.74591161385092       -3.24039697508781
H           -3.88328296163119       -5.19984412360917       -3.71407963403675
H           -1.67802574518341       -4.73809859202987       -2.69826834578706
54
 energy: -75.375720201109 gnorm: 0.000344288342 xtb: 6.5.1 (579679a)
C           -0.08810053273462        6.51672012556433        1.98362685521684
C            1.04297031237915        6.26730704704993        2.97679203454960
C            2.15010294795258        5.37066455630323        2.41903145558132
C            1.68842024636082        3.93506754686968        2.16971327997199
C            2.83866090282101        2.97455057803249        1.85770461283527
C            3.62858451701406        3.30765921374487        0.58915731382287
C            2.80900274234367        3.28800931185715       -0.70099309362471
C            2.16339055244695        1.94737312075042       -1.03732838435369
C            3.27725745813011        0.87021712221209       -1.27109810229104
C            2.75348632696407       -0.26637033659905       -1.82946856729122
O            2.27464462974480       -1.15353147072735       -2.32409368991626
C            1.88356147925909       -1.58763072880051        0.96429502757788
C            1.92698515786273       -0.73550072246845        2.05260013847662
C            0.76044678566054       -0.16957059219404        2.56646627442693
C           -0.46781910933105       -0.44618448342977        2.00447740232492
C           -0.53647692863154       -1.30626098691453        0.90867624483730
C            0.65061290976546       -1.87319401396476        0.39730815038523
S            0.35996381130861       -2.93014991508366       -0.97606299123094
C           -1.34324980547010       -2.61709643300312       -0.86723254515550
C           -1.65980878145984       -1.75803418406511        0.16174088144580
S           -3.37152741935100       -1.45653457749212        0.27503655328768
C           -3.65177135785868       -2.51540817184869       -1.09355138547795
C           -4.88520632310160       -2.81164641581056       -1.64970553329756
C           -4.92997494172149       -3.66981057931349       -2.73138471562948
C           -3.76335438015243       -4.22723714759336       -3.25355354881742
C           -2.53330451720341       -3.93692678470293       -2.70487667136364
C           -2.46358979312604       -3.07356076074490       -1.61210370818243
H           -0.62424561807135        5.59804870963014        1.76037575869969
H            0.30313008826489        6.92895607911610        1.05551959825745
H           -0.80058107836045        7.22871820164228        2.39600295171399
H            1.48091237818369        7.22920292120222        3.25769722975892
H            0.63330179962514        5.81967115718202        3.88627345091467
H            2.97555249441163        5.35832761531429        3.13622233588079
H            2.52000215317640        5.81621516810249        1.49386047808069
H            1.18084844652726        3.57787033016796        3.06971903796712
H            0.95872946203910        3.91993371017624        1.36048808703905
H            3.53315451477277        2.98636148935268        2.70133356819754
H            2.42773533408526        1.96658427993016        1.78993407570713
H            4.06073043448052        4.30311508379733        0.69672399528933
H            4.46841026988159        2.61465467593887        0.51497590853263
H            3.44807491979728        3.60761047161414       -1.52539011085193
H            2.00393084363339        4.01901316327730       -0.62090637590343
H            1.51518121478274        1.61955206794860       -0.22801537031497
H            1.56588394064454        2.05875419463723       -1.94019997796779
H            3.76900298331699        0.65591008806231       -0.31346626327104
H            4.03995813945643        1.28524662469680       -1.94874838150402
H            2.77704415963959       -2.05758221322555        0.58498541396789
H            2.87268716663263       -0.51872766312818        2.52459498788498
H            0.81909743010406        0.48599120581119        3.42141545973601
H           -1.37700736102707       -0.01919842526041        2.39892471950904
H           -5.78676978623208       -2.37955938207128       -1.24250835462215
H           -5.88273621480617       -3.91196323554112       -3.17711418696316
H           -3.82902800780507       -4.89574994739226       -4.09849933039719
H           -1.62790699699928       -4.36797668862330       -3.10507199345388
54
 energy: -75.383592341133 gnorm: 0.000474284687 xtb: 6.5.1 (579679a)
C           -2.17120556964744        4.05080709198530        0.23973238239938
C           -0.73971538240042        4.48169831986571       -0.06150718201805
C           -0.12780858160000        3.63599795524295       -1.17749220255767
C            1.28060196902836        4.07194031268241       -1.59115450291787
C            2.32185859314074        4.03752842206413       -0.47135838785825
C            2.57471423116676        2.65395297995003        0.08545020019912
C            3.62765276200542        2.56234305148294        1.16353441830238
C            3.38612081835825        1.32724768807550        2.02816838529649
C            1.97312082178000        1.39225788961740        2.63298296693838
C            0.92891566604362        1.54850515267002        1.67734919945535
O           -0.16590572637724        1.37137209184732        1.37300581351276
C            3.24146774123679       -1.09251868215153       -0.96085880375815
C            4.00729509441070       -1.85801070514629       -0.10187457810735
C            3.42379237038295       -2.53274310178979        0.97121539440128
C            2.06692107801900       -2.45660628393863        1.20167366515107
C            1.27297123973238       -1.69066187524281        0.34676996049290
C            1.87582331587486       -1.01055180720806       -0.73368505423406
S            0.71822148085249       -0.10252248699048       -1.69578177468828
C           -0.56962611563305       -0.63107436247634       -0.65533491686924
C           -0.12929196709204       -1.45266571117320        0.35976742139076
S           -1.41861873207853       -1.95586271899601        1.41754920878995
C           -2.56531451027384       -1.03804914760955        0.46127550138653
C           -3.92528829883305       -0.93810129661505        0.70343631600304
C           -4.69085040137781       -0.17161169999949       -0.15386661280717
C           -4.11221623722232        0.48633047014960       -1.23856165670998
C           -2.75956872892617        0.39296706137745       -1.48315992918533
C           -1.96711026906807       -0.37517773319679       -0.63142222309418
H           -2.58741813035030        4.63894094672616        1.05503053875724
H           -2.20807802194506        2.99958398009910        0.51920628055714
H           -2.80606726943281        4.18908455994080       -0.63315231680494
H           -0.73511797503227        5.53239344037860       -0.36081830188329
H           -0.15136951039162        4.39708417991021        0.85343699064332
H           -0.77152170871633        3.71497427372229       -2.05687218119910
H           -0.13097803797759        2.58464405661380       -0.88403798419792
H            1.61181216518218        3.42911554167707       -2.40950155544112
H            1.22907570200518        5.09165275179494       -1.97822982368156
H            3.26968346055123        4.39678511744486       -0.88123562916037
H            2.03776724502003        4.72669676496692        0.32434593915495
H            1.61065261043976        2.31112841778598        0.61309550045168
H            2.72438791873920        1.92169985440637       -0.70811549456214
H            3.61896449279447        3.46283112825370        1.77905125130995
H            4.61333901972399        2.47943256360445        0.70575902294236
H            3.48213712733268        0.42172054523300        1.43007138007383
H            4.11286111182995        1.28227993334407        2.83567548115910
H            1.91480224832195        2.25576070409724        3.31092100704670
H            1.75937082201212        0.48987142586349        3.21651294665710
H            3.68797829798201       -0.57953610286690       -1.79786563143761
H            5.07042502072518       -1.93827830472080       -0.26618737841585
H            4.04453156630994       -3.12698551637213        1.62363639554382
H            1.60473698733148       -2.98376200822209        2.02198294023501
H           -4.37171924723205       -1.45013945464088        1.54226982459154
H           -5.75277847783403       -0.08352896062521        0.01836356716546
H           -4.73590425255758        1.07667252217037       -1.89250500888504
H           -2.30652982479428        0.90018676235389       -2.32129076921500
54
 energy: -75.387222038478 gnorm: 0.000438743813 xtb: 6.5.1 (579679a)
C            0.54167272563956        7.38216751980890       -0.98221477547763
C            0.32331019637407        5.88589032233908       -0.78731711690704
C            0.13557757655385        5.49048831353726        0.67878738733879
C            1.35073816918398        5.73512220113868        1.57872231019037
C            2.63519348172532        5.02284569650768        1.14787666120683
C            2.48817121776037        3.50384975797760        1.07744580632817
C            3.82776828301409        2.82245710350627        0.79954988852632
C            3.71082353429992        1.30134027031439        0.68507592401057
C            3.05772303402053        0.88992193723104       -0.63943432847865
C            2.80165207770566       -0.56129618211777       -0.69119881832924
O            3.09265848357175       -1.41388426891327        0.07126654848000
C            1.90698290364698       -0.93549352107424       -2.05200065179701
C            2.59335566741465       -2.08205287611950       -2.62977231929403
C            2.23627827608402       -3.35944590578158       -2.30177958031428
C            1.10750457480776       -3.61209261455201       -1.50906952293686
C            0.28504080646948       -2.57065795761444       -1.10194680722103
C            0.62326891531005       -1.23436561913805       -1.43593196004020
S           -0.52130774502422       -0.08545291072518       -0.88834145487912
C           -1.50608755651537       -1.34803942196465       -0.20928288155242
C           -0.95310452705387       -2.59876202402823       -0.39664516177504
S           -1.93107861100953       -3.86632685415830        0.26684702708306
C           -3.10620987686902       -2.68294918038071        0.80344063441405
C           -4.28279496233484       -2.95984709044044        1.48193283448697
C           -5.10211019721492       -1.90461960959308        1.83136157813990
C           -4.75888578229303       -0.58970059758142        1.51270734916691
C           -3.59177600456471       -0.30541773621091        0.83957514804521
C           -2.74810792299438       -1.35623065652983        0.47619273521646
H            1.46920676950071        7.70823567676584       -0.51818764995844
H           -0.27728520087438        7.94928909005007       -0.54319287190752
H            0.59202983949448        7.62362649324784       -2.04218496404392
H           -0.57383967541713        5.59035305306573       -1.33741669945865
H            1.16618172831574        5.34269009984952       -1.21578636957077
H           -0.13913615640289        4.43524630387157        0.72704444053264
H           -0.70420536958111        6.05959267943895        1.08686452947327
H            1.54927108189885        6.80767976642747        1.63050079934455
H            1.09100862380221        5.41035088496915        2.59028805668330
H            2.95977513240268        5.40404003535434        0.17814723815415
H            3.41749932107289        5.27403919390020        1.86935135409377
H            2.08755910089752        3.14001962608471        2.02625216501502
H            1.77281342415126        3.25949289650412        0.29297672076380
H            4.51327383953918        3.05396098397860        1.61717038079712
H            4.26364499337493        3.23064558548082       -0.11420448730586
H            4.70217522676176        0.85143481437903        0.75026693047612
H            3.12068056064350        0.91930887452495        1.51925135627397
H            3.70777194563881        1.15969084479772       -1.47697785011116
H            2.11576306711694        1.42463339738037       -0.78175621936889
H            1.92728336747947       -0.03886645375266       -2.66614407443633
H            3.45565631902098       -1.89169281592480       -3.24947201260851
H            2.80800737150171       -4.19510560166655       -2.67271802710925
H            0.84621881111745       -4.62468911713450       -1.24102409324494
H           -4.54706663205340       -3.97639879264567        1.72756283697150
H           -6.02237604714332       -2.10090899532953        2.35926174594869
H           -5.42037890624794        0.21276972242036        1.79978336771108
H           -3.32388927378111        0.70971365850609        0.59069694326200
54
 energy: -75.374428618304 gnorm: 0.000494109162 xtb: 6.5.1 (579679a)
C           -0.47554353458261        6.18300781415370        2.00785623116924
C           -0.41571336724545        5.55843956900865        0.61783581849192
C            0.85446589564938        5.92227694043112       -0.15583984183208
C            2.16175082461694        5.42847992529646        0.46927360330303
C            2.27213041564059        3.90334256634974        0.52216238349408
C            3.65785198331688        3.47141303717908        1.00645063321890
C            3.79585863115882        1.98395325685066        1.34143311194005
C            3.69061083804318        1.04809063032343        0.13715390691941
C            2.19405784727547        0.66124545592032       -0.12516379612923
C            2.03921979105555        0.01233360388743       -1.31721356871277
O            1.96788237604192       -0.50003144009865       -2.31546669080257
C            2.83108688362538       -3.14816922648959       -0.14076862564124
C            3.45823964583083       -2.63378407955585        0.97877895045878
C            2.72564852415868       -2.00294815725011        1.98568010195565
C            1.35290297503243       -1.87332142696024        1.88735229021967
C            0.69808845700748       -2.39522178492733        0.76764270861811
C            1.45190173148279       -3.03103881271435       -0.24403470430951
S            0.45857663500518       -3.61312439004637       -1.57147390442640
C           -0.96276335824155       -3.00441804289381       -0.77553550280443
C           -0.68165929696755       -2.39529269182314        0.42866470673971
S           -2.10635926118392       -1.77208470108765        1.21227192041863
C           -3.09405991199993       -2.35771431330642       -0.10789574655920
C           -4.47001610294268       -2.23185866106971       -0.20595196062427
C           -5.10014474196212       -2.75754233975226       -1.31708638393499
C           -4.37124152193130       -3.39833092769800       -2.31869924912698
C           -3.00220030978984       -3.52553205111290       -2.22694390984552
C           -2.34347333643815       -3.00465661141752       -1.11358231117877
H           -0.35231634139315        7.26289799793460        1.94711687169044
H            0.30232747091855        5.78642160396159        2.65503526859004
H           -1.43807384426371        5.97838850845061        2.47283884383646
H           -0.50851905204996        4.47519588100879        0.70516432259205
H           -1.27455572361536        5.91080267328570        0.04009331953055
H            0.90383493324252        7.01102374616026       -0.24282609925904
H            0.77057288588942        5.52227335282222       -1.17011426908915
H            2.98902505547887        5.82310875719441       -0.12701764752352
H            2.26558091550296        5.84204042267803        1.47355784117273
H            1.51192169501182        3.52114663799903        1.20493853618720
H            2.08729865797898        3.53222862592596       -0.48804628980864
H            4.40253201083261        3.74666545774356        0.25664674171953
H            3.89400855231017        4.03810639418912        1.91002004337656
H            3.06768514577560        1.70977920360913        2.10406722348056
H            4.78693571825014        1.84098802034185        1.77509873747924
H            4.11434163972649        1.53371089704491       -0.73994338897969
H            4.24213695376102        0.13043936297927        0.33020493479294
H            1.58329822996946        1.57733229873232       -0.11114625209762
H            1.84395854048197        0.01951533054321        0.70650151426350
H            3.39183802768700       -3.64650118297165       -0.91551477985177
H            4.52712087390399       -2.73663216335791        1.08076564549897
H            3.23793456588335       -1.62146927559234        2.85480177885059
H            0.77139341733096       -1.40837676017190        2.66856144880624
H           -5.03208108559513       -1.73756330557647        0.57177067652110
H           -6.17213439944282       -2.67189899506260       -1.41001332597584
H           -4.88999194319987       -3.80048115561981       -3.17570617082682
H           -2.43527161182190       -4.02255547546329       -2.99995569588132
54