61
 energy: -98.292546479324 gnorm: 0.000640992941 xtb: 6.5.1 (579679a)
C            3.49567499422214       -0.23700483927400       -2.57582372716638
C            3.74790182182470        0.13634174179146       -1.11524628523920
C            5.03816906488344        0.94385076261363       -1.00037257808492
C            3.79790070836831       -1.14153905886530       -0.27002857975581
C            4.11170240376960       -0.91645162324599        1.22083848938079
O            3.98043408324924       -2.10918888047201        1.96774072788525
C            3.24227484919792        0.19776663328762        1.81436903392313
O            3.76059159150202        1.29742305590325        2.01386820318199
N            1.94415861092532       -0.02284283962587        2.04620808168012
C            1.12232025013402        1.04048749424145        2.60048433341137
C            0.61065916833104        0.63167372008790        3.99076861301354
N           -0.09642810753667       -0.63472626573670        3.96932549822814
C           -0.15004175102361       -0.16137097614061       -3.38580927888665
N            0.07236619093341       -1.32498041232297       -2.86555686774575
C           -0.28128554877503       -1.52056980354442       -1.56812844075411
C            0.07547431115486       -2.80339276261891       -0.98067052901055
C            1.20679627686045       -3.47171589404866       -1.44928121004388
C            1.68473027813901       -4.59195119549268       -0.80361747091769
C            1.01488875203420       -5.06860372373702        0.31279667286762
C           -0.15125456804522       -4.46896782118128        0.74404975967492
C           -0.64119576961234       -3.33315717570343        0.10788073157776
O           -1.78432055978133       -2.74071728261506        0.50180940667557
N           -0.84836629310132       -0.61508839542839       -0.81120956738884
C           -1.08033404940007        0.59955862324059       -1.32945368115288
C           -1.67527514904458        1.59618557154363       -0.52704589328030
C           -1.86893090590248        2.85352799984732       -1.02377584586093
C           -1.48013840009536        3.15178206859937       -2.33979491862301
Br          -1.73654510718767        4.92936372231892       -2.97711595380229
C           -0.92590712525771        2.21426800418896       -3.16877298122717
C           -0.71976233142207        0.91934850842044       -2.67134325790967
C            0.73343735861401       -1.66222853426257        3.37137405625601
C            1.22798981834398       -1.27865507836717        1.96614715551296
H            3.41070907400954        0.65858983328791       -3.18723235940455
H            4.31913582597761       -0.83533909223447       -2.95919945613317
H            2.57667227315965       -0.80940510636040       -2.67710028138847
H            2.91763130609762        0.75923759803148       -0.76037966070899
H            5.13788356275454        1.36938921326683       -0.00532110869463
H            5.89230162691228        0.30487270129763       -1.20276005814058
H            5.03685166604140        1.76084420051622       -1.71805578802334
H            4.56752710543171       -1.80248854907463       -0.67890124704685
H            2.83752353725814       -1.65525979183795       -0.35220552134910
H            5.14117323003954       -0.53950568861012        1.31698509735712
H            4.61884044119715       -2.75467728919895        1.63680476661519
H            0.27866142839854        1.20574737982215        1.92075974875776
H            1.72904604059411        1.94505148654452        2.65581156577340
H            1.46475003016611        0.52652481539669        4.66659454966395
H           -0.05181170961363        1.40452457081936        4.38342315115744
H           -0.94788250290696       -0.53408413635586        3.42284658421375
H            1.71463840228378       -3.07028608101467       -2.31199844562868
H            2.57861011733492       -5.08092913080535       -1.15565165907495
H            1.40347279119278       -5.90940596436881        0.85704483594377
H           -0.68258063874796       -4.87407124134891        1.59293073236400
H           -2.20581773257536       -3.25616133917808        1.20654784267660
H           -1.96998403500127        1.33604904392788        0.47612889009439
H           -2.31511499534159        3.62529665796683       -0.41626883199645
H           -0.63993547026232        2.45001744989017       -4.18194855350888
H            0.16860565777410       -2.59277966773794        3.32153751327625
H            1.60178906508900       -1.81511062354872        4.01845632702572
H            1.87187998704635       -2.06365979341726        1.58407169903077
H            0.37413608363362       -1.13653682714940        1.29260947205439
Cl           0.29810296412533        0.03803002752321       -5.04174350135375
61
 energy: -98.283519655993 gnorm: 0.000330670611 xtb: 6.5.1 (579679a)
C            3.33337050616091        1.15932873565010        3.17476296762865
C            2.44137281854761        0.10579517541606        2.52334492115168
C            3.00776089482418       -1.29609574697373        2.74191059581902
C            2.18735101929294        0.40619483901155        1.03786292957032
C            3.43435879112238        0.39210243656097        0.13855164289652
O            4.08813630068500        1.64183131729800        0.21194614105945
C            3.03512236970160       -0.02763763648358       -1.28438793253299
O            3.22665169623334       -1.19431102394265       -1.62482126519962
N            2.51603465744595        0.88092112826062       -2.12782995853303
C            2.07425709730222        0.45623212814146       -3.44802924844137
C            0.57307144272227        0.79312398480469       -3.61860065102374
N           -0.06818899803144        1.01563577548729       -2.33539303275032
C           -2.58101346748922       -0.70315639287066       -1.74931914814961
N           -1.92571991352809       -1.73368382537765       -1.32303615906642
C           -1.34024775145902       -1.65119844102364       -0.09719796520771
C           -0.50905596564409       -2.77983069954725        0.29802570350568
C            0.11527005716080       -3.53704758577381       -0.69304549748434
C            1.00477770208324       -4.53838846359713       -0.36791515954085
C            1.26785313546494       -4.80492198300796        0.96707171479183
C            0.62316761434513       -4.09985065604712        1.96444761703460
C           -0.27102212087495       -3.07918817416511        1.65161615679848
O           -0.92607881934355       -2.39797265843049        2.60905034589620
N           -1.43522672154819       -0.61747355553946        0.69780567713814
C           -2.09659063598319        0.46634558160620        0.26526260325846
C           -2.15916216723699        1.61235395664202        1.08622738768069
C           -2.72627670591362        2.76127483264425        0.61312995453637
C           -3.25918373239749        2.79113823541653       -0.68528654063492
Br          -3.93223746221731        4.44189398703757       -1.34234479112296
C           -3.28101686546797        1.69021231689967       -1.49673356794406
C           -2.69605071223746        0.50735455671359       -1.02651934583892
C            0.50172866751204        2.18453588596875       -1.68458440279045
C            2.04969393763114        2.21008029578081       -1.79236900563592
H            3.43351917857765        0.95888054846307        4.23886443250276
H            4.32350083579382        1.15476354077774        2.72788340998170
H            2.90954938340265        2.15215187305755        3.04650235696650
H            1.45672771610658        0.14644027986700        3.00245142947271
H            2.43529520399676       -2.03056433301790        2.17937111407908
H            4.04609137566894       -1.35712223960600        2.42459843130710
H            2.96773540440108       -1.55202928622801        3.79779325677466
H            1.73124949447222        1.39379864697352        0.95957471625769
H            1.47588698503966       -0.33148969339863        0.65549384663698
H            4.10563727194668       -0.40938842966721        0.47599803023613
H            4.95583594949053        1.58134784014360       -0.20471459173789
H            2.24863864216155       -0.61923848865144       -3.51422032248658
H            2.67824201981659        0.96238302090070       -4.20727404266327
H            0.44232569018938        1.70393778697691       -4.20710473365937
H            0.05837545283642       -0.02297385799332       -4.12846081585866
H            0.09291760573572        0.19746551254656       -1.75322658570770
H           -0.09680349774849       -3.29865883752830       -1.72363119459784
H            1.50009858414469       -5.09729360339884       -1.14572203336021
H            1.98350151052192       -5.56384521332984        1.23329213705285
H            0.82051518679185       -4.33152574970252        3.00158867962543
H           -0.68158357253454       -2.73028756720187        3.48673075451448
H           -1.72918658737747        1.55570691034723        2.07248182848405
H           -2.75925805702425        3.65349682080138        1.21896858801342
H           -3.70486863127542        1.72033295379090       -2.48783767156001
H            0.17803260813179        2.17634715038373       -0.64275879685490
H            0.08264377738321        3.07017001094694       -2.16982496088357
H            2.35885627492127        2.87348719304257       -2.60535927685204
H            2.50879756733816        2.55215573225357       -0.86938691625238
Cl          -3.32588004186712       -0.85744684836478       -3.29447375671669
61
 energy: -98.292874900619 gnorm: 0.000448223225 xtb: 6.5.1 (579679a)
C            3.98631119416372        0.23475326119410        2.77139612801810
C            3.88853048634506        0.21277722264602        1.24587747712158
C            3.71248454377828        1.63704065879535        0.72315779018394
C            2.73633998308041       -0.70767988677933        0.82431360412237
C            2.85213829052581       -1.29821470574202       -0.59766802875010
O            4.02642388005879       -2.06127537570090       -0.72176224088143
C            2.86705344382242       -0.23011308721928       -1.69539268356996
O            3.93140972848099       -0.02195084517514       -2.28124953072221
N            1.74586814233632        0.43802501415030       -1.98424759407276
C            0.41706279682113        0.18733566670756       -1.46972722248054
C           -0.52670638258964       -0.15776741111516       -2.63756068451455
N           -0.54795182888935        0.86318486796868       -3.66312661843693
C           -0.75986268743205        0.96782433476931        2.72974879529087
N           -0.40702380728822       -0.27330214003720        2.70662720248028
C           -0.92273887887259       -1.07157328570715        1.72862523300633
C           -0.34371249779631       -2.39848439976228        1.61977588936589
C            0.55251606035024       -2.83590097586067        2.60005390394319
C            1.21447462392469       -4.03662497674156        2.47763570756021
C            0.98894173718471       -4.82595823238526        1.35851133943882
C            0.08598281492224       -4.43078651188009        0.39386665542433
C           -0.59602829074651       -3.22053131910006        0.50293245667309
O           -1.44895320794401       -2.81776594630865       -0.45335555136407
N           -1.84532997761992       -0.68273600588191        0.88520615842544
C           -2.21277835337060        0.60534436919444        0.88143352857683
C           -3.14912488334166        1.05839604192048       -0.07283172351973
C           -3.42825453782307        2.39146505317895       -0.17990244978785
C           -2.79597554272446        3.30907440293297        0.67531734107933
Br          -3.13466336125328        5.16911587433404        0.42617316305259
C           -1.93192266817555        2.91422834290699        1.66118147738562
C           -1.63491471781497        1.54983942547982        1.78045290293157
C            0.79686593612643        1.12589998986338       -4.13879405964382
C            1.76353649783020        1.48202768630148       -2.99895189132037
H            3.05844768743628        0.60503257749232        3.20234004102751
H            4.17276152943170       -0.76353227838377        3.15922700817881
H            4.79731460393064        0.88509788911461        3.08988736201358
H            4.82060477004927       -0.19891899664969        0.84579952546483
H            4.51946529580456        2.27022931365158        1.08498179063343
H            3.72830840517877        1.66539659396140       -0.36238774220416
H            2.76870408241521        2.05424318064570        1.07053511269797
H            1.78738094528091       -0.18118605025106        0.93077269737956
H            2.71572131467906       -1.56734730445186        1.49667890681555
H            2.00729133124423       -1.98316953335748       -0.75602163615121
H            4.61119692713076       -1.55801745406127       -1.32117460572416
H            0.06245061690211        1.09786262211894       -0.96913371802317
H            0.41690001883040       -0.62569505993155       -0.75039711086968
H           -0.18304679656807       -1.08462829704502       -3.10443721598784
H           -1.53239682359694       -0.31105755735481       -2.24758501087976
H           -0.95454424166529        1.71801452383459       -3.29413915132103
H            0.71970457193551       -2.19451337102723        3.45010919689611
H            1.91165198277167       -4.35383093165464        3.23667629446903
H            1.52784060897185       -5.74791078842688        1.22949603583534
H           -0.08863839605037       -5.05840326106238       -0.46863964109631
H           -1.54888081231977       -3.50819414512536       -1.12767287969918
H           -3.60505777218380        0.32956167991359       -0.72208941521044
H           -4.12030232054048        2.75338776361649       -0.92410900645144
H           -1.46614619827023        3.62381672164886        2.32704249830220
H            0.76756612538898        1.94108942327581       -4.86267611557916
H            1.15479429188791        0.22337956980742       -4.64251850835691
H            2.78474647184243        1.57694008802790       -3.36884651506753
H            1.45909610669185        2.42473581344800       -2.52878641230209
Cl          -0.09463286183747        1.93785016163643        3.99925174026773
61
 energy: -98.283725616744 gnorm: 0.000961517575 xtb: 6.5.1 (579679a)
C            4.09870326532994       -2.71546358274127       -1.36678031184067
C            3.73235271933238       -1.36106723751782       -0.76081008791896
C            2.60479574544905       -0.72202331323165       -1.56796082371584
C            4.96913440584438       -0.45326601561998       -0.72405414126842
C            5.02376258314241        0.57294534994850        0.42407150587801
O            5.34834587328810       -0.11063259905658        1.61368786013281
C            3.77417558904375        1.45547569389476        0.45229736150762
O            3.69882935175011        2.36265701430312       -0.37666171174153
N            2.80176121410301        1.28222272528335        1.36361299656171
C            2.67353219615208        0.23628622519012        2.36288788473696
C            1.23183694318731       -0.27024741245716        2.34836115133120
N            0.27193634032861        0.76506580850845        2.71435680816406
C           -2.10668336465878        0.27362680934681        1.27621101294329
N           -1.75973108664138       -0.97505104049465        1.21484626800934
C           -1.07026110891025       -1.40093640148698        0.12041096773157
C           -0.49724602738681       -2.73619614474945        0.14269785951373
C            0.00884314939693       -3.26593077105262       -1.05129570308052
C            0.74744824877039       -4.42548212873937       -1.05601229605915
C            1.01191793939210       -5.06821958128317        0.14761694162027
C            0.48093890150250       -4.59789080977259        1.32761607698744
C           -0.30209551963823       -3.44307576480007        1.34536296827143
O           -0.79261258015610       -3.04283418603379        2.53024981313120
N           -0.82342435191667       -0.64814401930778       -0.92687893479111
C           -1.16919244988842        0.64513530553237       -0.88421879738242
C           -0.83950602968991        1.48823564780392       -1.96760406471936
C           -1.11024909698582        2.82605143442541       -1.90417329658866
C           -1.73729741422218        3.36069405261150       -0.76708744946485
Br          -2.08048518168878        5.23911061918907       -0.71193124883423
C           -2.10110636054276        2.58115613537271        0.29819312988974
C           -1.81859771937781        1.20828356119430        0.25400958207020
C            0.78950950145904        2.11135047065230        2.49988235512644
C            1.63482898075313        2.15027653015183        1.23851725469314
H            3.21250923039519       -3.33957421917552       -1.44141257891762
H            4.51846674431158       -2.58371987573159       -2.36145317085461
H            4.82958121286361       -3.22571459394816       -0.74464144554665
H            3.38763755809852       -1.53683069539517        0.26157069217992
H            1.67951625122789       -1.27845144519255       -1.44475103441101
H            2.42973737006392        0.30507668657040       -1.25851805065554
H            2.86653948530453       -0.71069692671290       -2.62410563154119
H            5.05119221057424        0.08783105445279       -1.66733416526157
H            5.85875684227670       -1.07078876997454       -0.60071472929037
H            5.83428676749348        1.27601087376115        0.17254550638548
H            5.52444307482805        0.52919806803530        2.31252073540425
H            2.91530537787849        0.64168762164404        3.35329765820979
H            3.35668985531367       -0.58064180030846        2.14647228082889
H            1.00690671850276       -0.60741869746982        1.32903551606236
H            1.12963872784894       -1.12717514422538        3.01452653556806
H           -0.01830891351915        0.66612932683197        3.68014525858912
H           -0.18940085886134       -2.72891902875534       -1.96500688906375
H            1.13253348698057       -4.82416429382084       -1.98134167582821
H            1.64487341022698       -5.93581505684182        0.16049049607372
H            0.65900374941691       -5.10249624737164        2.26407963728242
H           -1.34782550228828       -2.24545965324892        2.38869835335172
H           -0.34883458200659        1.05195658417227       -2.82197819893267
H           -0.84080112296627        3.47992207091892       -2.71877752512399
H           -2.59010346663889        2.99933266889185        1.16389246351377
H            1.39208078563896        2.47681152770927        3.34498641836895
H           -0.06140187787981        2.78830082236060        2.38094628448917
H            1.03735708348738        1.82734733115724        0.37731534126525
H            1.98560039577160        3.16560304008838        1.03538523836691
Cl          -3.00604467142739        0.75354639631876        2.65810574867874
61
 energy: -98.281030316388 gnorm: 0.000809719754 xtb: 6.5.1 (579679a)
C            3.80259981919799       -2.24036002395138       -1.96474612200847
C            4.63114713170670       -1.93014178420170       -0.71933285263940
C            4.32577607544478       -2.93077568710103        0.39057928330324
C            4.45703213393095       -0.47509391088167       -0.25390370628586
C            3.18525770359192       -0.21416213419723        0.57205795276047
O            2.05119777858150       -0.80555302984141       -0.02235614092181
C            3.03704591199432        1.29804955893589        0.78671505913569
O            3.35282254252496        1.78557127021909        1.87328421055212
N            2.61192356954023        2.05361980915687       -0.23612646958014
C            2.09370100732812        1.58728086592100       -1.50572248312789
C            0.55019447308306        1.71827664013145       -1.49184440046664
N            0.09641096208058        2.72394138319896       -0.54223807719025
C           -0.71481002471659        0.12870837636738        1.94869867270416
N           -0.28705425645231       -1.00795700735859        1.49947814790629
C           -0.98196097801528       -1.60293704245877        0.48383128621149
C           -0.34434624049234       -2.78501383943895       -0.07719151612626
C            0.43778223578123       -3.60294978363683        0.73837799303385
C            1.14747379068160       -4.65912923730084        0.21007242458454
C            1.10026303058047       -4.88890973586614       -1.15660714893662
C            0.32546286827842       -4.09831219801694       -1.97963792003332
C           -0.41498933036898       -3.04105221489023       -1.45790543424065
O           -1.14022363352914       -2.22945762480135       -2.24704096484508
N           -2.08888205143641       -1.13425016511461       -0.02164872786697
C           -2.53873566497831        0.05210603498669        0.41349494613618
C           -3.67863982467226        0.62537940178162       -0.18758263119914
C           -4.07893639307182        1.88368306430664        0.16268683417247
C           -3.36746341659183        2.59619566565580        1.14165455180481
Br          -3.89908187507254        4.37209342877368        1.55070726168191
C           -2.28944997213946        2.06487808810678        1.79332693674880
C           -1.85584794348406        0.78198459861998        1.43180768037876
C            0.99382571333706        3.86511019861524       -0.54938691953286
C            2.40175136707588        3.48034856242236       -0.03883656207432
H            4.00737037418054       -3.25439163909899       -2.29909537416144
H            2.74330517397526       -2.15379740471714       -1.74432542233644
H            4.05624405724831       -1.55568185827265       -2.77121313366048
H            5.68432782850667       -2.02892747957832       -0.99133088535676
H            4.92208238190780       -2.72151250502700        1.27629906805984
H            3.27234642879925       -2.89474490488880        0.65217595116236
H            4.54773120770251       -3.93690949009141        0.04965842098609
H            4.47413581978581        0.17606372017505       -1.12868512585755
H            5.29852270485590       -0.19164739869425        0.38304380336787
H            3.34182489802667       -0.63214406961363        1.57650654386723
H            1.38572850050853       -0.98169617733204        0.66183734527605
H            2.37647130480803        0.55574226287192       -1.68565602739248
H            2.52492677005046        2.22582120808386       -2.28243859178364
H            0.19773949602385        2.01146954819781       -2.48433652624102
H            0.09244838925765        0.76257696654078       -1.23197595047615
H            0.09326640861987        2.32948211718799        0.39434360900812
H            0.47404727858669       -3.38631736037153        1.79525025175762
H            1.74835856083780       -5.28671793691645        0.84895645899462
H            1.68843861333142       -5.67756022834850       -1.58835046609076
H            0.30349651842763       -4.28811755973240       -3.04313983207925
H           -1.06051112271873       -2.50130068903686       -3.17446196517750
H           -4.19056838051301        0.05538950022455       -0.94495684937260
H           -4.93066924305370        2.34513785246044       -0.31191626180502
H           -1.75662066097968        2.61387272442929        2.55376180931915
H            0.57004982108195        4.64905225487283        0.08002590449265
H            1.04125358305434        4.23472458184120       -1.57569043026941
H            3.18010963515070        4.03746787879621       -0.57036803565603
H            2.50509788591779        3.67418994892997        1.03126392773316
Cl           0.24969925677857        0.88090460897158        3.18605261955852
61
 energy: -98.281751639316 gnorm: 0.000753114593 xtb: 6.5.1 (579679a)
C            4.44368228384556        0.00718724336967       -1.68627485224674
C            4.51685133587762       -0.10591844864724       -0.16552871305354
C            3.80453789186655       -1.37341767200463        0.30576087713721
C            4.02510866366116        1.16122396574631        0.55378503662314
C            2.57178444011121        1.63188976671118        0.32343741157790
O            1.60635289706095        0.68180498173121        0.71566613614886
C            2.43090791630082        2.21610435944437       -1.08775184753435
O            3.13511060859297        3.20193513933374       -1.31762369693031
N            1.60582767066683        1.72661853525547       -2.02335786687571
C            1.52377024862413        2.40128009361720       -3.31163846199349
C            0.08970296179121        2.89756639580499       -3.54899646464892
N           -0.89091975569829        1.83254322486660       -3.45075296463168
C           -1.71119888356339       -0.90359760369752        2.42748047766065
N           -1.41255050414607       -1.89386739643610        1.65378577712694
C           -1.71557188442072       -1.78980935517565        0.33839917280631
C           -1.18238689441277       -2.78208628283254       -0.58006017465860
C           -1.68296455907423       -2.82092253736958       -1.88553997523799
C           -1.13601796956788       -3.65118530265892       -2.83745479318127
C           -0.06165617841422       -4.46094726827971       -2.49468761266164
C            0.43356540425914       -4.45776773944891       -1.20732760887293
C           -0.11500397150510       -3.63021166662121       -0.22833715090561
O            0.38940238672534       -3.60499190379744        1.01817243660885
N           -2.43667088319619       -0.81453067394296       -0.17107984982009
C           -2.73774747670753        0.23143252479602        0.60915073077609
C           -3.42265421553490        1.33816549682182        0.05971317762870
C           -3.57937847611468        2.47821983911915        0.79506751783986
C           -3.07932092433166        2.53846590705396        2.10624116115204
Br          -3.20190840461515        4.18644162537726        3.05332115244725
C           -2.48373457818286        1.46678061391781        2.71276206214459
C           -2.31350668225482        0.29142842165285        1.96894895242075
C           -0.75088654529253        1.13771820761558       -2.18676056454727
C            0.67588145570072        0.61898406483698       -1.94323414820993
H            5.03540991011570       -0.78032975197507       -2.14796694199790
H            3.41769550925754       -0.09413998689231       -2.02718225731403
H            4.82743990923580        0.96878058240250       -2.02096460205204
H            5.57572050901158       -0.19485529165096        0.11048798579007
H            4.25710632226881       -2.24343271215837       -0.16464111528291
H            3.89004069806748       -1.48599348094685        1.38454831145502
H            2.75239181853255       -1.34548408384995        0.03585872886634
H            4.66134280066108        1.99859991904013        0.25861503979283
H            4.15327722401082        1.01163645650461        1.63017690800948
H            2.44971440793285        2.53086391441845        0.95847964522692
H            1.84660241570136        0.37787142444185        1.60138412685144
H            1.80911182922354        1.68832744687534       -4.09390677347938
H            2.22952362935197        3.23216585873759       -3.30532071875565
H           -0.15800238727270        3.64836842499573       -2.79242814685060
H            0.01762724360557        3.35938630099710       -4.53469136839748
H           -0.75793948400596        1.17558109506149       -4.21471411166569
H           -2.50857952477231       -2.16990267911330       -2.12268579678016
H           -1.53157423015691       -3.66527068040846       -3.84049210723294
H            0.39992820311633       -5.08945088871863       -3.23694036429725
H            1.26569379143463       -5.09763195313547       -0.94851499918011
H            1.10784549912711       -4.25040359076154        1.10509785775474
H           -3.76962365700161        1.27275743910979       -0.95817473389594
H           -4.06675257837412        3.34411731464287        0.37462021443093
H           -2.12439560853278        1.51501074515526        3.72896221860570
H           -1.45051147531714        0.30254604736240       -2.14859159481493
H           -1.00723050814372        1.84205727007152       -1.38928995029462
H            0.73317163354625        0.13817493287429       -0.97362482091085
H            0.93780635976115       -0.10769495536143       -2.72344437660182
Cl          -1.33304763513655       -1.09189167233974        4.10075840856425
61
 energy: -98.282046048480 gnorm: 0.000718760113 xtb: 6.5.1 (579679a)
C            1.43597139172976       -0.29827860749034        4.04680364562515
C            2.14649937354780        0.35750029008548        2.86444177010365
C            1.72116618996859        1.81992338868208        2.73673449038385
C            1.86194096335963       -0.41664220480064        1.56206797234921
C            3.13542565339292       -0.71072816093544        0.75071297700215
O            3.76552907627722        0.44595481548777        0.24795721052706
C            2.81331825823664       -1.70097816393432       -0.37055253135772
O            2.91984843713346       -2.90333007849098       -0.13286399646604
N            2.42803344085438       -1.25435090886580       -1.56931811044734
C            2.16366844972633        0.12357756765722       -1.93930682317635
C            1.15871825267745        0.13854922866767       -3.09511851072246
N            1.65755642500686       -0.52428696924928       -4.29033913161450